# vtk DataFile Version 3.0
Non-uniform Rectilinear - Rectilinear Grid
ASCII
DATASET RECTILINEAR_GRID
DIMENSIONS   7   1
X_COORDINATES   7 float
      0.00000000000000
      0.10000000000000
      0.30000000000000
      0.50000000000000
      0.70000000000000
      0.90000000000000
      1.00000000000000
Y_COORDINATES   1 float
      1.00000000000000
COEFFICIENTS_   7 float
      0.00000000000000
      1.34615384615385
      1.34615384615385
      1.34615384615385
      1.34615384615385
      2.69230769230769
      0.00000000000000
COEFFICIENTS_   7 float
      0.00000000000000
      2.69230769230769
      1.34615384615385
      1.34615384615385
      1.34615384615385
      1.34615384615385
      0.00000000000000
COEFFICIENTS_   7 float
      1.00000000000000
      4.03846153846154
      2.69230769230769
      2.69230769230769
      2.69230769230769
      4.03846153846154
      1.00000000000000
COEFFICIENTS_   7 float
      0.00000000000000
      0.00000000000000
      0.00000000000000
    150.00000000000000
      0.00000000000000
      0.00000000000000
    100.00000000000000
COEFFICIENTS_   7 float
      0.00000000000000
      0.10000000000000
      0.20000000000000
      0.20000000000000
      0.20000000000000
      0.20000000000000
      0.10000000000000
CELL_DATA                7
SCALARS T float
LOOKUP_TABLE default
      0.00000000000000
     50.00000000000000
     50.00000000000000
     50.00000000000000
     50.00000000000000
     50.00000000000000
    100.00000000000000
      0.00000000000000
     16.66666666666666
     49.99999999999999
    105.71428571428571
     49.99999999999999
     83.33333333333334
    100.00000000000000
      0.00000000000000
     16.66666666666666
     61.19047619047619
    105.71428571428571
     94.52380952380952
     83.33333333333334
    100.00000000000000
      0.00000000000000
     20.39682539682539
     61.19047619047619
    133.57142857142858
     94.52380952380952
     98.17460317460319
    100.00000000000000
      0.00000000000000
     20.39682539682539
     76.98412698412700
    133.57142857142858
    115.87301587301587
     98.17460317460319
    100.00000000000000
      0.00000000000000
     25.66137566137566
     76.98412698412700
    152.14285714285714
    115.87301587301587
    105.29100529100532
    100.00000000000000
      0.00000000000000
     25.66137566137566
     88.90211640211641
    152.14285714285714
    128.71693121693121
    105.29100529100532
    100.00000000000000
      0.00000000000000
     29.63403880070546
     88.90211640211641
    164.52380952380952
    128.71693121693121
    109.57231040564376
    100.00000000000000
      0.00000000000000
     29.63403880070546
     97.07892416225749
    164.52380952380952
    137.04805996472663
    109.57231040564376
    100.00000000000000
      0.00000000000000
     32.35964138741915
     97.07892416225749
    172.77777777777774
    137.04805996472663
    112.34935332157556
    100.00000000000000
      0.00000000000000
     32.35964138741915
    102.56870958259846
    172.77777777777774
    142.56356554967664
    112.34935332157556
    100.00000000000000
      0.00000000000000
     34.18956986086614
    102.56870958259846
    178.28042328042326
    142.56356554967664
    114.18785518322557
    100.00000000000000
      0.00000000000000
     34.18956986086614
    106.23499657064471
    178.28042328042326
    146.23413923182440
    114.18785518322557
    100.00000000000000
      0.00000000000000
     35.41166552354823
    106.23499657064471
    181.94885361552028
    146.23413923182440
    115.41137974394148
    100.00000000000000
      0.00000000000000
     35.41166552354823
    108.68025956953427
    181.94885361552028
    148.68011667973087
    115.41137974394148
    100.00000000000000
      0.00000000000000
     36.22675318984475
    108.68025956953427
    184.39447383891829
    148.68011667973087
    116.22670555991031
    100.00000000000000
      0.00000000000000
     36.22675318984475
    110.31061351438153
    184.39447383891829
    150.31058969941429
    116.22670555991031
    100.00000000000000
      0.00000000000000
     36.77020450479384
    110.31061351438153
    186.02488732118363
    150.31058969941429
    116.77019656647144
    100.00000000000000
      0.00000000000000
     36.77020450479384
    111.39754591298875
    186.02488732118363
    151.39754194382752
    116.77019656647144
    100.00000000000000
      0.00000000000000
     37.13251530432957
    111.39754591298875
    187.11182964269383
    151.39754194382752
    117.13251398127585
    100.00000000000000
      0.00000000000000
     37.13251530432957
    112.12217247351171
    187.11182964269383
    152.12217181198486
    117.13251398127585
    100.00000000000000
      0.00000000000000
     37.37405749117056
    112.12217247351171
    187.83645785703399
    152.12217181198486
    117.37405727066164
    100.00000000000000
      0.00000000000000
     37.37405749117056
    112.60525767410229
    187.83645785703399
    152.60525756384780
    117.37405727066164
    100.00000000000000
      0.00000000000000
     37.53508589136742
    112.60525767410229
    188.31954333326075
    152.60525756384780
    117.53508585461596
    100.00000000000000
      0.00000000000000
     37.53508589136742
    112.92731461231411
    188.31954333326075
    152.92731459393835
    117.53508585461596
    100.00000000000000
      0.00000000000000
     37.64243820410470
    112.92731461231411
    188.64160031741196
    152.92731459393835
    117.64243819797946
    100.00000000000000
      0.00000000000000
     37.64243820410470
    113.14201926075833
    188.64160031741196
    153.14201925769569
    117.64243819797946
    100.00000000000000
      0.00000000000000
     37.71400642025277
    113.14201926075833
    188.85630497351272
    153.14201925769569
    117.71400641923191
    100.00000000000000
      0.00000000000000
     37.71400642025277
    113.28515569688275
    188.85630497351272
    153.28515569637230
    117.71400641923191
    100.00000000000000
      0.00000000000000
     37.76171856562758
    113.28515569688275
    188.99944141091325
    153.28515569637230
    117.76171856545744
    100.00000000000000
      0.00000000000000
     37.76171856562758
    113.38057998827043
    188.99944141091325
    153.38057998818533
    117.76171856545744
    100.00000000000000
      0.00000000000000
     37.79352666275680
    113.38057998827043
    189.09486570251360
    153.38057998818533
    117.79352666272845
    100.00000000000000
      0.00000000000000
     37.79352666275680
    113.44419618263520
    189.09486570251360
    153.44419618262100
    117.79352666272845
    100.00000000000000
      0.00000000000000
     37.81473206087839
    113.44419618263520
    189.15848189691383
    153.44419618262100
    117.81473206087368
    100.00000000000000
      0.00000000000000
     37.81473206087839
    113.48660697889612
    189.15848189691383
    153.48660697889375
    117.81473206087368
    100.00000000000000
      0.00000000000000
     37.82886899296536
    113.48660697889612
    189.20089269318066
    153.48660697889375
    117.82886899296460
    100.00000000000000
      0.00000000000000
     37.82886899296536
    113.51488084307303
    189.20089269318066
    153.51488084307260
    117.82886899296460
    100.00000000000000
      0.00000000000000
     37.83829361435767
    113.51488084307303
    189.22916655735855
    153.51488084307260
    117.83829361435755
    100.00000000000000
      0.00000000000000
     37.83829361435767
    113.53373008585812
    189.22916655735855
    153.53373008585802
    117.83829361435755
    100.00000000000000
      0.00000000000000
     37.84457669528603
    113.53373008585812
    189.24801580014378
    153.53373008585802
    117.84457669528604
    100.00000000000000
      0.00000000000000
     37.84457669528603
    113.54629624771492
    189.24801580014378
    153.54629624771491
    117.84457669528604
    100.00000000000000
      0.00000000000000
     37.84876541590496
    113.54629624771492
    189.26058196200063
    153.54629624771491
    117.84876541590498
    100.00000000000000
      0.00000000000000
     37.84876541590496
    113.55467368895280
    189.26058196200063
    153.55467368895276
    117.84876541590498
    100.00000000000000
      0.00000000000000
     37.85155789631759
    113.55467368895280
    189.26895940323851
    153.55467368895276
    117.85155789631760
    100.00000000000000
      0.00000000000000
     37.85155789631759
    113.56025864977805
    189.26895940323851
    153.56025864977804
    117.85155789631760
    100.00000000000000
      0.00000000000000
     37.85341954992600
    113.56025864977805
    189.27454436406376
    153.56025864977804
    117.85341954992603
    100.00000000000000
      0.00000000000000
     37.85341954992600
    113.56398195699488
    189.27454436406376
    153.56398195699487
    117.85341954992603
    100.00000000000000
      0.00000000000000
     37.85466065233162
    113.56398195699488
    189.27826767128059
    153.56398195699487
    117.85466065233163
    100.00000000000000
      0.00000000000000
     37.85466065233162
    113.56646416180611
    189.27826767128059
    153.56646416180612
    117.85466065233163
    100.00000000000000
      0.00000000000000
     37.85548805393536
    113.56646416180611
    189.28074987609185
    153.56646416180612
    117.85548805393540
    100.00000000000000
      0.00000000000000
     37.85548805393536
    113.56811896501362
    189.28074987609185
    153.56811896501361
    117.85548805393540
    100.00000000000000
      0.00000000000000
     37.85603965500454
    113.56811896501362
    189.28240467929933
    153.56811896501361
    117.85603965500455
    100.00000000000000
      0.00000000000000
     37.85603965500454
    113.56922216715195
    189.28240467929933
    153.56922216715193
    117.85603965500455
    100.00000000000000
      0.00000000000000
     37.85640738905064
    113.56922216715195
    189.28350788143766
    153.56922216715193
    117.85640738905066
    100.00000000000000
      0.00000000000000
     37.85640738905064
    113.56995763524415
    189.28350788143766
    153.56995763524415
    117.85640738905066
    100.00000000000000
      0.00000000000000
     37.85665254508137
    113.56995763524415
    189.28424334952987
    153.56995763524415
    117.85665254508140
    100.00000000000000
      0.00000000000000
     37.85665254508137
    113.57044794730562
    189.28424334952987
    153.57044794730561
    117.85665254508140
    100.00000000000000
      0.00000000000000
     37.85681598243520
    113.57044794730562
    189.28473366159133
    153.57044794730561
    117.85681598243522
    100.00000000000000
      0.00000000000000
     37.85681598243520
    113.57077482201326
    189.28473366159133
    153.57077482201325
    117.85681598243522
    100.00000000000000
      0.00000000000000
     37.85692494067108
    113.57077482201326
    189.28506053629897
    153.57077482201325
    117.85692494067111
    100.00000000000000
      0.00000000000000
     37.85692494067108
    113.57099273848503
    189.28506053629897
    153.57099273848502
    117.85692494067111
    100.00000000000000
      0.00000000000000
     37.85699757949500
    113.57099273848503
    189.28527845277074
    153.57099273848502
    117.85699757949503
    100.00000000000000
      0.00000000000000
     37.85699757949500
    113.57113801613288
    189.28527845277074
    153.57113801613286
    117.85699757949503
    100.00000000000000
      0.00000000000000
     37.85704600537762
    113.57113801613288
    189.28542373041859
    153.57113801613286
    117.85704600537763
    100.00000000000000
      0.00000000000000
     37.85704600537762
    113.57123486789811
    189.28542373041859
    153.57123486789808
    117.85704600537763
    100.00000000000000
      0.00000000000000
     37.85707828929936
    113.57123486789811
    189.28552058218381
    153.57123486789808
    117.85707828929938
    100.00000000000000
      0.00000000000000
     37.85707828929936
    113.57129943574159
    189.28552058218381
    153.57129943574157
    117.85707828929938
    100.00000000000000
      0.00000000000000
     37.85709981191386
    113.57129943574159
    189.28558515002732
    153.57129943574157
    117.85709981191387
    100.00000000000000
      0.00000000000000
     37.85709981191386
    113.57134248097060
    189.28558515002732
    153.57134248097060
    117.85709981191387
    100.00000000000000
      0.00000000000000
     37.85711416032353
    113.57134248097060
    189.28562819525632
    153.57134248097060
    117.85711416032355
    100.00000000000000
      0.00000000000000
     37.85711416032353
    113.57137117778994
    189.28562819525632
    153.57137117778993
    117.85711416032355
    100.00000000000000
      0.00000000000000
     37.85712372592997
    113.57137117778994
    189.28565689207565
    153.57137117778993
    117.85712372592999
    100.00000000000000
      0.00000000000000
     37.85712372592997
    113.57139030900282
    189.28565689207565
    153.57139030900282
    117.85712372592999
    100.00000000000000
      0.00000000000000
     37.85713010300093
    113.57139030900282
    189.28567602328854
    153.57139030900282
    117.85713010300097
    100.00000000000000
      0.00000000000000
     37.85713010300093
    113.57140306314476
    189.28567602328854
    153.57140306314474
    117.85713010300097
    100.00000000000000
      0.00000000000000
     37.85713435438158
    113.57140306314476
    189.28568877743047
    153.57140306314474
    117.85713435438160
    100.00000000000000
      0.00000000000000
     37.85713435438158
    113.57141156590603
    189.28568877743047
    153.57141156590603
    117.85713435438160
    100.00000000000000
      0.00000000000000
     37.85713718863534
    113.57141156590603
    189.28569728019173
    153.57141156590603
    117.85713718863536
    100.00000000000000
      0.00000000000000
     37.85713718863534
    113.57141723441354
    189.28569728019173
    153.57141723441353
    117.85713718863536
    100.00000000000000
      0.00000000000000
     37.85713907813784
    113.57141723441354
    189.28570294869925
    153.57141723441353
    117.85713907813786
    100.00000000000000
      0.00000000000000
     37.85713907813784
    113.57142101341856
    189.28570294869925
    153.57142101341856
    117.85713907813786
    100.00000000000000
      0.00000000000000
     37.85714033780618
    113.57142101341856
    189.28570672770428
    153.57142101341856
    117.85714033780621
    100.00000000000000
      0.00000000000000
     37.85714033780618
    113.57142353275525
    189.28570672770428
    153.57142353275523
    117.85714033780621
    100.00000000000000
      0.00000000000000
     37.85714117758508
    113.57142353275525
    189.28570924704096
    153.57142353275523
    117.85714117758508
    100.00000000000000
      0.00000000000000
     37.85714117758508
    113.57142521231303
    189.28570924704096
    153.57142521231302
    117.85714117758508
    100.00000000000000
      0.00000000000000
     37.85714173743767
    113.57142521231303
    189.28571092659874
    153.57142521231302
    117.85714173743770
    100.00000000000000
      0.00000000000000
     37.85714173743767
    113.57142633201821
    189.28571092659874
    153.57142633201821
    117.85714173743770
    100.00000000000000
      0.00000000000000
     37.85714211067273
    113.57142633201821
    189.28571204630393
    153.57142633201821
    117.85714211067275
    100.00000000000000
      0.00000000000000
     37.85714211067273
    113.57142707848833
    189.28571204630393
    153.57142707848831
    117.85714211067275
    100.00000000000000
      0.00000000000000
     37.85714235949610
    113.57142707848833
    189.28571279277404
    153.57142707848831
    117.85714235949612
    100.00000000000000
      0.00000000000000
     37.85714235949610
    113.57142757613506
    189.28571279277404
    153.57142757613505
    117.85714235949612
    100.00000000000000
      0.00000000000000
     37.85714252537834
    113.57142757613506
    189.28571329042077
    153.57142757613505
    117.85714252537836
    100.00000000000000
      0.00000000000000
     37.85714252537834
    113.57142790789958
    189.28571329042077
    153.57142790789956
    117.85714252537836
    100.00000000000000
      0.00000000000000
     37.85714263596651
    113.57142790789958
    189.28571362218528
    153.57142790789956
    117.85714263596654
    100.00000000000000
      0.00000000000000
     37.85714263596651
    113.57142812907590
    189.28571362218528
    153.57142812907588
    117.85714263596654
    100.00000000000000
      0.00000000000000
     37.85714270969196
    113.57142812907590
    189.28571384336161
    153.57142812907588
    117.85714270969197
    100.00000000000000
      0.00000000000000
     37.85714270969196
    113.57142827652679
    189.28571384336161
    153.57142827652680
    117.85714270969197
    100.00000000000000
      0.00000000000000
     37.85714275884225
    113.57142827652679
    189.28571399081252
    153.57142827652680
    117.85714275884229
    100.00000000000000
      0.00000000000000
     37.85714275884225
    113.57142837482739
    189.28571399081252
    153.57142837482738
    117.85714275884229
    100.00000000000000
      0.00000000000000
     37.85714279160912
    113.57142837482739
    189.28571408911310
    153.57142837482738
    117.85714279160914
    100.00000000000000
      0.00000000000000
     37.85714279160912
    113.57142844036112
    189.28571408911310
    153.57142844036113
    117.85714279160914
    100.00000000000000
      0.00000000000000
     37.85714281345370
    113.57142844036112
    189.28571415464685
    153.57142844036113
    117.85714281345373
    100.00000000000000
      0.00000000000000
     37.85714281345370
    113.57142848405029
    189.28571415464685
    153.57142848405027
    117.85714281345373
    100.00000000000000
      0.00000000000000
     37.85714282801675
    113.57142848405029
    189.28571419833600
    153.57142848405027
    117.85714282801676
    100.00000000000000
      0.00000000000000
     37.85714282801675
    113.57142851317637
    189.28571419833600
    153.57142851317636
    117.85714282801676
    100.00000000000000
      0.00000000000000
     37.85714283772545
    113.57142851317637
    189.28571422746208
    153.57142851317636
    117.85714283772546
    100.00000000000000
      0.00000000000000
     37.85714283772545
    113.57142853259377
    189.28571422746208
    153.57142853259376
    117.85714283772546
    100.00000000000000
      0.00000000000000
     37.85714284419791
    113.57142853259377
    189.28571424687948
    153.57142853259376
    117.85714284419794
    100.00000000000000
      0.00000000000000
     37.85714284419791
    113.57142854553869
    189.28571424687948
    153.57142854553868
    117.85714284419794
    100.00000000000000
      0.00000000000000
     37.85714284851289
    113.57142854553869
    189.28571425982440
    153.57142854553868
    117.85714284851291
    100.00000000000000
      0.00000000000000
     37.85714284851289
    113.57142855416866
    189.28571425982440
    153.57142855416865
    117.85714284851291
    100.00000000000000
      0.00000000000000
     37.85714285138955
    113.57142855416866
    189.28571426845437
    153.57142855416865
    117.85714285138957
    100.00000000000000
      0.00000000000000
     37.85714285138955
    113.57142855992196
    189.28571426845437
    153.57142855992197
    117.85714285138957
    100.00000000000000
      0.00000000000000
     37.85714285330731
    113.57142855992196
    189.28571427420766
    153.57142855992197
    117.85714285330734
    100.00000000000000
      0.00000000000000
     37.85714285330731
    113.57142856375751
    189.28571427420766
    153.57142856375751
    117.85714285330734
    100.00000000000000
      0.00000000000000
     37.85714285458583
    113.57142856375751
    189.28571427804323
    153.57142856375751
    117.85714285458585
    100.00000000000000
      0.00000000000000
     37.85714285458583
    113.57142856631452
    189.28571427804323
    153.57142856631452
    117.85714285458585
    100.00000000000000
      0.00000000000000
     37.85714285543817
    113.57142856631452
    189.28571428060025
    153.57142856631452
    117.85714285543818
    100.00000000000000
      0.00000000000000
     37.85714285543817
    113.57142856801921
    189.28571428060025
    153.57142856801920
    117.85714285543818
    100.00000000000000
      0.00000000000000
     37.85714285600640
    113.57142856801921
    189.28571428230492
    153.57142856801920
    117.85714285600642
    100.00000000000000
      0.00000000000000
     37.85714285600640
    113.57142856915566
    189.28571428230492
    153.57142856915564
    117.85714285600642
    100.00000000000000
      0.00000000000000
     37.85714285638521
    113.57142856915566
    189.28571428344137
    153.57142856915564
    117.85714285638522
    100.00000000000000
      0.00000000000000
     37.85714285638521
    113.57142856991328
    189.28571428344137
    153.57142856991328
    117.85714285638522
    100.00000000000000
      0.00000000000000
     37.85714285663775
    113.57142856991328
    189.28571428419900
    153.57142856991328
    117.85714285663778
    100.00000000000000
      0.00000000000000
     37.85714285663775
    113.57142857041838
    189.28571428419900
    153.57142857041839
    117.85714285663778
    100.00000000000000
      0.00000000000000
     37.85714285680611
    113.57142857041838
    189.28571428470408
    153.57142857041839
    117.85714285680615
    100.00000000000000
      0.00000000000000
     37.85714285680611
    113.57142857075512
    189.28571428470408
    153.57142857075510
    117.85714285680615
    100.00000000000000
      0.00000000000000
     37.85714285691836
    113.57142857075512
    189.28571428504083
    153.57142857075510
    117.85714285691839
    100.00000000000000
      0.00000000000000
     37.85714285691836
    113.57142857097959
    189.28571428504083
    153.57142857097958
    117.85714285691839
    100.00000000000000
      0.00000000000000
     37.85714285699319
    113.57142857097959
    189.28571428526530
    153.57142857097958
    117.85714285699321
    100.00000000000000
      0.00000000000000
     37.85714285699319
    113.57142857112925
    189.28571428526530
    153.57142857112925
    117.85714285699321
    100.00000000000000
      0.00000000000000
     37.85714285704307
    113.57142857112925
    189.28571428541497
    153.57142857112925
    117.85714285704309
    100.00000000000000
      0.00000000000000
     37.85714285704307
    113.57142857122902
    189.28571428541497
    153.57142857122901
    117.85714285704309
    100.00000000000000
      0.00000000000000
     37.85714285707633
    113.57142857122902
    189.28571428551473
    153.57142857122901
    117.85714285707635
    100.00000000000000
      0.00000000000000
     37.85714285707633
    113.57142857129553
    189.28571428551473
    153.57142857129551
    117.85714285707635
    100.00000000000000
      0.00000000000000
     37.85714285709850
    113.57142857129553
    189.28571428558124
    153.57142857129551
    117.85714285709852
    100.00000000000000
      0.00000000000000
     37.85714285709850
    113.57142857133987
    189.28571428558124
    153.57142857133985
    117.85714285709852
    100.00000000000000
      0.00000000000000
     37.85714285711328
    113.57142857133987
    189.28571428562557
    153.57142857133985
    117.85714285711330
    100.00000000000000
      0.00000000000000
     37.85714285711328
    113.57142857136942
    189.28571428562557
    153.57142857136941
    117.85714285711330
    100.00000000000000
      0.00000000000000
      0.00000000000000
      0.00000000000000
      0.00000000000000
      0.00000000000000
      0.00000000000000
    100.00000000000000
      0.00000000000000
      0.00000000000000
      0.00000000000000
      0.00000000000000
      0.00000000000000
      0.00000000000000
    100.00000000000000
      0.00000000000000
      0.00000000000000
      0.00000000000000
      0.00000000000000
      0.00000000000000
      0.00000000000000
    100.00000000000000
      0.00000000000000
      0.00000000000000
      0.00000000000000
      0.00000000000000
      0.00000000000000
      0.00000000000000
    100.00000000000000
      0.00000000000000
      0.00000000000000
      0.00000000000000
      0.00000000000000
      0.00000000000000
      0.00000000000000
    100.00000000000000
      0.00000000000000
      0.00000000000000
      0.00000000000000
      0.00000000000000
      0.00000000000000
      0.00000000000000
    100.00000000000000
      0.00000000000000
      0.00000000000000
      0.00000000000000
      0.00000000000000
      0.00000000000000
      0.00000000000000
    100.00000000000000
      0.00000000000000
      0.00000000000000
      0.00000000000000
      0.00000000000000
      0.00000000000000
      0.00000000000000
    100.00000000000000
      0.00000000000000
      0.00000000000000
      0.00000000000000
      0.00000000000000
      0.00000000000000
      0.00000000000000
    100.00000000000000
      0.00000000000000
      0.00000000000000
      0.00000000000000
      0.00000000000000
      0.00000000000000
      0.00000000000000
    100.00000000000000
      0.00000000000000
      0.00000000000000
      0.00000000000000
      0.00000000000000
      0.00000000000000
      0.00000000000000
    100.00000000000000
      0.00000000000000
      0.00000000000000
      0.00000000000000
      0.00000000000000
      0.00000000000000
      0.00000000000000
    100.00000000000000
      0.00000000000000
      0.00000000000000
      0.00000000000000
      0.00000000000000
      0.00000000000000
      0.00000000000000
    100.00000000000000
      0.00000000000000
      0.00000000000000
      0.00000000000000
      0.00000000000000
      0.00000000000000
      0.00000000000000
    100.00000000000000
      0.00000000000000
      0.00000000000000
      0.00000000000000
      0.00000000000000
      0.00000000000000
      0.00000000000000
    100.00000000000000
      0.00000000000000
      0.00000000000000
      0.00000000000000
      0.00000000000000
      0.00000000000000
      0.00000000000000
    100.00000000000000
      0.00000000000000
      0.00000000000000
      0.00000000000000
      0.00000000000000
      0.00000000000000
      0.00000000000000
    100.00000000000000
      0.00000000000000
      0.00000000000000
      0.00000000000000
      0.00000000000000
      0.00000000000000
      0.00000000000000
    100.00000000000000
      0.00000000000000
      0.00000000000000
      0.00000000000000
      0.00000000000000
      0.00000000000000
      0.00000000000000
    100.00000000000000
      0.00000000000000
      0.00000000000000
      0.00000000000000
      0.00000000000000
      0.00000000000000
      0.00000000000000
    100.00000000000000
      0.00000000000000
      0.00000000000000
      0.00000000000000
      0.00000000000000
      0.00000000000000
      0.00000000000000
    100.00000000000000
      0.00000000000000
      0.00000000000000
      0.00000000000000
      0.00000000000000
      0.00000000000000
      0.00000000000000
    100.00000000000000
      0.00000000000000
      0.00000000000000
      0.00000000000000
      0.00000000000000
      0.00000000000000
      0.00000000000000
    100.00000000000000
      0.00000000000000
      0.00000000000000
      0.00000000000000
      0.00000000000000
      0.00000000000000
      0.00000000000000
    100.00000000000000
      0.00000000000000
      0.00000000000000
      0.00000000000000
      0.00000000000000
      0.00000000000000
      0.00000000000000
    100.00000000000000
      0.00000000000000
      0.00000000000000
      0.00000000000000
      0.00000000000000
      0.00000000000000
      0.00000000000000
    100.00000000000000
      0.00000000000000
      0.00000000000000
      0.00000000000000
      0.00000000000000
      0.00000000000000
      0.00000000000000
    100.00000000000000
      0.00000000000000
      0.00000000000000
      0.00000000000000
      0.00000000000000
      0.00000000000000
      0.00000000000000
    100.00000000000000
      0.00000000000000
      0.00000000000000
      0.00000000000000
      0.00000000000000
      0.00000000000000
      0.00000000000000
    100.00000000000000
      0.00000000000000
      0.00000000000000
      0.00000000000000
      0.00000000000000
      0.00000000000000
      0.00000000000000
    100.00000000000000
      0.00000000000000
      0.00000000000000
      0.00000000000000
      0.00000000000000
      0.00000000000000
      0.00000000000000
    100.00000000000000
      0.00000000000000
      0.00000000000000
      0.00000000000000
      0.00000000000000
      0.00000000000000
      0.00000000000000
    100.00000000000000
      0.00000000000000
      0.00000000000000
      0.00000000000000
      0.00000000000000
      0.00000000000000
      0.00000000000000
    100.00000000000000
      0.00000000000000
      0.00000000000000
      0.00000000000000
      0.00000000000000
      0.00000000000000
      0.00000000000000
    100.00000000000000
      0.00000000000000
      0.00000000000000
      0.00000000000000
      0.00000000000000
      0.00000000000000
      0.00000000000000
    100.00000000000000
      0.00000000000000
      0.00000000000000
      0.00000000000000
      0.00000000000000
      0.00000000000000
      0.00000000000000
    100.00000000000000
      0.00000000000000
      0.00000000000000
      0.00000000000000
      0.00000000000000
      0.00000000000000
      0.00000000000000
    100.00000000000000
      0.00000000000000
      0.00000000000000
      0.00000000000000
      0.00000000000000
      0.00000000000000
      0.00000000000000
    100.00000000000000
      0.00000000000000
      0.00000000000000
      0.00000000000000
      0.00000000000000
      0.00000000000000
      0.00000000000000
    100.00000000000000