# vtk DataFile Version 3.0
Non-uniform Rectilinear - Rectilinear Grid
ASCII
DATASET RECTILINEAR_GRID
DIMENSIONS 102 102   1
X_COORDINATES 102 float
      0.00000000000000
      0.00001000000000
      0.01010101010101
      0.02020202020202
      0.03030303030303
      0.04040404040404
      0.05050505050505
      0.06060606060606
      0.07070707070707
      0.08080808080808
      0.09090909090909
      0.10101010101010
      0.11111111111111
      0.12121212121212
      0.13131313131313
      0.14141414141414
      0.15151515151515
      0.16161616161616
      0.17171717171717
      0.18181818181818
      0.19191919191919
      0.20202020202020
      0.21212121212121
      0.22222222222222
      0.23232323232323
      0.24242424242424
      0.25252525252525
      0.26262626262626
      0.27272727272727
      0.28282828282828
      0.29292929292929
      0.30303030303030
      0.31313131313131
      0.32323232323232
      0.33333333333333
      0.34343434343434
      0.35353535353535
      0.36363636363636
      0.37373737373737
      0.38383838383838
      0.39393939393939
      0.40404040404040
      0.41414141414141
      0.42424242424242
      0.43434343434343
      0.44444444444444
      0.45454545454545
      0.46464646464646
      0.47474747474747
      0.48484848484848
      0.49494949494949
      0.50505050505051
      0.51515151515152
      0.52525252525253
      0.53535353535354
      0.54545454545455
      0.55555555555556
      0.56565656565657
      0.57575757575758
      0.58585858585859
      0.59595959595960
      0.60606060606061
      0.61616161616162
      0.62626262626263
      0.63636363636364
      0.64646464646465
      0.65656565656566
      0.66666666666667
      0.67676767676768
      0.68686868686869
      0.69696969696970
      0.70707070707071
      0.71717171717172
      0.72727272727273
      0.73737373737374
      0.74747474747475
      0.75757575757576
      0.76767676767677
      0.77777777777778
      0.78787878787879
      0.79797979797980
      0.80808080808081
      0.81818181818182
      0.82828282828283
      0.83838383838384
      0.84848484848485
      0.85858585858586
      0.86868686868687
      0.87878787878788
      0.88888888888889
      0.89898989898990
      0.90909090909091
      0.91919191919192
      0.92929292929293
      0.93939393939394
      0.94949494949495
      0.95959595959596
      0.96969696969697
      0.97979797979798
      0.98989898989899
      1.00000000000000
      1.00001000000000
Y_COORDINATES 102 float
      0.00000000000000
      0.00001000000000
      0.01010101010101
      0.02020202020202
      0.03030303030303
      0.04040404040404
      0.05050505050505
      0.06060606060606
      0.07070707070707
      0.08080808080808
      0.09090909090909
      0.10101010101010
      0.11111111111111
      0.12121212121212
      0.13131313131313
      0.14141414141414
      0.15151515151515
      0.16161616161616
      0.17171717171717
      0.18181818181818
      0.19191919191919
      0.20202020202020
      0.21212121212121
      0.22222222222222
      0.23232323232323
      0.24242424242424
      0.25252525252525
      0.26262626262626
      0.27272727272727
      0.28282828282828
      0.29292929292929
      0.30303030303030
      0.31313131313131
      0.32323232323232
      0.33333333333333
      0.34343434343434
      0.35353535353535
      0.36363636363636
      0.37373737373737
      0.38383838383838
      0.39393939393939
      0.40404040404040
      0.41414141414141
      0.42424242424242
      0.43434343434343
      0.44444444444444
      0.45454545454545
      0.46464646464646
      0.47474747474747
      0.48484848484848
      0.49494949494949
      0.50505050505051
      0.51515151515152
      0.52525252525253
      0.53535353535354
      0.54545454545455
      0.55555555555556
      0.56565656565657
      0.57575757575758
      0.58585858585859
      0.59595959595960
      0.60606060606061
      0.61616161616162
      0.62626262626263
      0.63636363636364
      0.64646464646465
      0.65656565656566
      0.66666666666667
      0.67676767676768
      0.68686868686869
      0.69696969696970
      0.70707070707071
      0.71717171717172
      0.72727272727273
      0.73737373737374
      0.74747474747475
      0.75757575757576
      0.76767676767677
      0.77777777777778
      0.78787878787879
      0.79797979797980
      0.80808080808081
      0.81818181818182
      0.82828282828283
      0.83838383838384
      0.84848484848485
      0.85858585858586
      0.86868686868687
      0.87878787878788
      0.88888888888889
      0.89898989898990
      0.90909090909091
      0.91919191919192
      0.92929292929293
      0.93939393939394
      0.94949494949495
      0.95959595959596
      0.96969696969697
      0.97979797979798
      0.98989898989899
      1.00000000000000
      1.00001000000000
Z_COORDINATES   1 float
      1.00000000000000
CELL_DATA            10201
SCALARS T float
LOOKUP_TABLE default
      0.00000000000000
      0.00000000000000
      0.00000000000000
      0.00000000000000
      0.00000000000000
      0.00000000000000
      0.00000000000000
      0.00000000000000
      0.00000000000000
      0.00000000000000
      0.00000000000000
      0.00000000000000
      0.00000000000000
      0.00000000000000
      0.00000000000000
      0.00000000000000
      0.00000000000000
      0.00000000000000
      0.00000000000000
      0.00000000000000
      0.00000000000000
      0.00000000000000
      0.00000000000000
      0.00000000000000
      0.00000000000000
      0.00000000000000
      0.00000000000000
      0.00000000000000
      0.00000000000000
      0.00000000000000
      0.00000000000000
      0.00000000000000
      0.00000000000000
      0.00000000000000
      0.00000000000000
      0.00000000000000
      0.00000000000000
      0.00000000000000
      0.00000000000000
      0.00000000000000
      0.00000000000000
      0.00000000000000
      0.00000000000000
      0.00000000000000
      0.00000000000000
      0.00000000000000
      0.00000000000000
      0.00000000000000
      0.00000000000000
      0.00000000000000
      0.00000000000000
      0.00000000000000
      0.00000000000000
      0.00000000000000
      0.00000000000000
      0.00000000000000
      0.00000000000000
      0.00000000000000
      0.00000000000000
      0.00000000000000
      0.00000000000000
      0.00000000000000
      0.00000000000000
      0.00000000000000
      0.00000000000000
      0.00000000000000
      0.00000000000000
      0.00000000000000
      0.00000000000000
      0.00000000000000
      0.00000000000000
      0.00000000000000
      0.00000000000000
      0.00000000000000
      0.00000000000000
      0.00000000000000
      0.00000000000000
      0.00000000000000
      0.00000000000000
      0.00000000000000
      0.00000000000000
      0.00000000000000
      0.00000000000000
      0.00000000000000
      0.00000000000000
      0.00000000000000
      0.00000000000000
      0.00000000000000
      0.00000000000000
      0.00000000000000
      0.00000000000000
      0.00000000000000
      0.00000000000000
      0.00000000000000
      0.00000000000000
      0.00000000000000
      0.00000000000000
      0.00000000000000
      0.00000000000000
      0.00000000000000
      0.00000000000000
    100.00000000000000
     99.05653134483209
     98.12198451755725
     97.20066273818840
     96.29235806210865
     95.39686597779851
     94.51398534853716
     93.64351835511205
     92.78527043951939
     91.93905024963777
     91.10466958485797
     90.28194334265248
     89.47068946606795
     88.67072889212449
     87.88188550110618
     87.10398606672686
     86.33686020715612
     85.58034033689033
     84.83426161945386
     84.09846192091639
     83.37278176421141
     82.65706428424234
     81.95115518376237
     81.25490269001459
     80.56815751211896
     79.89077279919326
     79.22260409919497
     78.56350931847177
     77.91334868200815
     77.27198469435581
     76.63928210123635
     76.01510785180399
     75.39933106155729
     74.79182297588817
     74.19245693425736
     73.60110833498535
     73.01765460064780
     72.44197514406537
     71.87395133487720
     71.31346646668813
     70.76040572477940
     70.21465615437342
     69.67610662944247
     69.14464782205229
     68.62017217223098
     68.10257385835422
     67.59174876803769
     67.08759446952809
     66.59001018358374
     66.09889675583668
     65.61415662962747
     65.13569381930481
     64.66341388398166
     64.19722390174019
     63.73703244427746
     63.28274955198437
     62.83428670945040
     62.39155682138652
     61.95447418895932
     61.52295448652885
     61.09691473878361
     60.67627329826541
     60.26094982327749
     59.85086525616939
     59.44594180199181
     59.04610290751515
     58.65127324060548
     58.26137866995165
     57.87634624513751
     57.49610417705333
     57.12058181864034
     56.74970964596289
     56.38341923960240
     56.02164326636751
     55.66431546131504
     55.31137061007649
     54.96274453148439
     54.61837406049391
     54.27819703139411
     53.94215226130405
     53.61017953394897
     53.28221958371132
     52.95821407995235
     52.63810561159921
     52.32183767199322
     52.00935464399471
     51.70060178533996
     51.39552521424601
     51.09407189525902
     50.79618962534186
     50.50182702019701
     50.21093350082062
     49.92345928028366
     49.63935535073640
     49.35857347063126
     49.08106615193508
     48.80678660003959
     48.53567867118960
     48.26556938705152
     47.54935739345621
      0.00000000000000
    100.00000000000000
     99.99550704577959
     99.98658511740679
     99.97336036987097
     99.95593537923727
     99.93441068149366
     99.90888481112319
     99.87945433896054
     99.84621390934603
     99.80925627658998
     99.76867234076001
     99.72455118280429
     99.67698009902222
     99.62604463489498
     99.57182861828787
     99.51441419203552
     99.45388184592186
     99.39031044806585
     99.32377727572353
     99.25435804551776
     99.18212694310574
     99.10715665229485
     99.02951838361703
     98.94928190237164
     98.86651555614627
     98.78128630182582
     98.69365973209857
     98.60370010146899
     98.51147035178616
     98.41703213729677
     98.32044584923155
     98.22177063993358
     98.12106444653712
     98.01838401420503
     97.91378491893323
     97.80732158992973
     97.69904733157657
     97.58901434498200
     97.47727374913080
     97.36387560163978
     97.24886891912581
     97.13230169719407
     97.01422093005260
     96.89467262976099
     96.77370184511925
     96.65135268020387
     96.52766831255752
     96.40269101103874
     96.27646215333787
     96.14902224316556
     96.02041092711970
     95.89066701123680
     95.75982847723365
     95.62793249844503
     95.49501545546291
     95.36111295148281
     95.22625982736302
     95.09049017640110
     94.95383735883398
     94.81633401606587
     94.67801208462964
     94.53890280988627
     94.39903675946719
     94.25844383646466
     94.11715329237418
     93.97519373979416
     93.83259316488697
     93.68937893960599
     93.54557783369280
     93.40121602644891
     93.25631911828613
     93.11091214205968
     92.96501957418818
     92.81866534556430
     92.67187285225995
     92.52466496603016
     92.37706404461863
     92.22909194186961
     92.08077001764882
     91.93211914757750
     91.78315973258290
     91.63391170826834
     91.48439455410667
     91.33462730246015
     91.18462854742981
     91.03441645353779
     90.88400876424546
     90.73342281031080
     90.58267551798713
     90.43178341706742
     90.28076264877589
     90.12962897351034
     89.97839777843782
     89.82708408494645
     89.67570255595386
     89.52426750264958
     89.37279280162227
     89.22127308051655
     89.06574374158238
     88.07349868803969
      0.00000000000000
    100.00000000000000
     99.99997850240422
     99.99991452044955
     99.99978806938827
     99.99957973952793
     99.99927078252242
     99.99884309515309
     99.99827920346254
     99.99756224723397
     99.99667596480865
     99.99560467823508
     99.99433327874223
     99.99284721253117
     99.99113246687770
     99.98917555654002
     99.98696351046506
     99.98448385878731
     99.98172462011401
     99.97867428909086
     99.97532182424270
     99.97165663608286
     99.96766857548629
     99.96334792232059
     99.95868537432970
     99.95367203626499
     99.94829940925878
     99.94255938043497
     99.93644421275205
     99.92994653507353
     99.92305933246118
     99.91577593668646
     99.90809001695523
     99.89999557084182
     99.89148691542772
     99.88255867864065
     99.87320579078994
     99.86342347629412
     99.85320724559639
     99.84255288726452
     99.83145646027073
     99.81991428644839
     99.80792294312124
     99.79547925590185
     99.78258029165572
     99.76922335162730
     99.75540596472486
     99.74112588096048
     99.72638106504225
     99.71116969011497
     99.69549013164689
     99.67934096145871
     99.66272094189202
     99.64562902011465
     99.62806432255945
     99.61002614949376
     99.59151396971710
     99.57252741538406
     99.55306627694972
     99.53313049823514
     99.51272017161017
     99.49183553329118
     99.47047695875131
     99.44864495824039
     99.42634017241303
     99.40356336806148
     99.38031543395189
     99.35659737676123
     99.33241031711287
     99.30775548570880
     99.28263421955592
     99.25704795828521
     99.23099824056081
     99.20448670057759
     99.17751506464541
     99.15008514785767
     99.12219885084282
     99.09385815659668
     99.06506512739388
     99.03582190177688
     99.00613069162054
     98.97599377927082
     98.94541351475591
     98.91439231306819
     98.88293265151550
     98.85103706714003
     98.81870815420353
     98.78594856173723
     98.75276099115523
     98.71914819392964
     98.68511296932641
     98.65065816220017
     98.61578666084714
     98.58050139491459
     98.54480533336537
     98.50870148249459
     98.47219288352279
     98.43528251071757
     98.39795236282551
     98.35579263597749
     97.38622773891110
      0.00000000000000
    100.00000000000000
     99.99999989665454
     99.99999948768038
     99.99999847852702
     99.99999648452012
     99.99999303534842
     99.99998757893879
     99.99997948521758
     99.99996804976035
     99.99995249733327
     99.99993198532854
     99.99990560709691
     99.99987239517928
     99.99983132444055
     99.99978131510758
     99.99972123571419
     99.99964990595510
     99.99956609945160
     99.99946854643068
     99.99935593632019
     99.99922692026192
     99.99908011354505
     99.99891409796159
     99.99872742408607
     99.99851861348131
     99.99828616083255
     99.99802853601091
     99.99774418606920
     99.99743153717084
     99.99708899645428
     99.99671495383416
     99.99630778374127
     99.99586584680257
     99.99538749146319
     99.99487105555163
     99.99431486778978
     99.99371724924958
     99.99307651475708
     99.99239097424581
     99.99165893406085
     99.99087869821446
     99.99004856959517
     99.98916685113119
     99.98823184690960
     99.98724186325234
     99.98619520975039
     99.98509020025730
     99.98392515384292
     99.98269839570872
     99.98140825806577
     99.98005308097606
     99.97863121315891
     99.97714101276249
     99.97558084810248
     99.97394909836794
     99.97224415429574
     99.97046441881461
     99.96860830765928
     99.96667424995574
     99.96466068877871
     99.96256608168171
     99.96038890120090
     99.95812763533321
     99.95578078798971
     99.95334687942481
     99.95082444664216
     99.94821204377783
     99.94550824246149
     99.94271163215635
     99.93982082047845
     99.93683443349585
     99.93375111600844
     99.93056953180906
     99.92728836392635
     99.92390631484992
     99.92042210673857
     99.91683448161200
     99.91314220152641
     99.90934404873474
     99.90543882583199
     99.90142535588596
     99.89730248255405
     99.89306907018661
     99.88872400391722
     99.88426618974025
     99.87969455457629
     99.87500804632589
     99.87020563391195
     99.86528630731087
     99.86024907757356
     99.85509297683603
     99.84981705832011
     99.84442039632485
     99.83890208620868
     99.83326124436063
     99.82749700767873
     99.82160843186813
     99.81557324533892
     99.80490757134233
     98.85267976695276
      0.00000000000000
    100.00000000000000
     99.99999999950087
     99.99999999704278
     99.99999998977974
     99.99999997305643
     99.99999994001990
     99.99999988125118
     99.99999978441778
     99.99999963394744
     99.99999941072114
     99.99999909178587
     99.99999865008543
     99.99999805420943
     99.99999726815929
     99.99999625113107
     99.99999495731397
     99.99999333570453
     99.99999132993544
     99.99998887811876
     99.99998591270283
     99.99998236034229
     99.99997814178104
     99.99997317174717
     99.99996735885975
     99.99996060554686
     99.99995280797441
     99.99994385598546
     99.99993363304928
     99.99992201622015
     99.99990887610524
     99.99989407684124
     99.99987747607945
     99.99985892497864
     99.99983826820599
     99.99981534394500
     99.99978998391049
     99.99976201337050
     99.99973125117418
     99.99969750978610
     99.99966059532603
     99.99962030761441
     99.99957644022298
     99.99952878053035
     99.99947710978236
     99.99942120315670
     99.99936082983187
     99.99929575306020
     99.99922573024439
     99.99915051301787
     99.99906984732826
     99.99898347352399
     99.99889112644402
     99.99879253551013
     99.99868742482188
     99.99857551325381
     99.99845651455500
     99.99833013745074
     99.99819608574576
     99.99805405842962
     99.99790374978339
     99.99774484948792
     99.99757704273345
     99.99740001033027
     99.99721342882060
     99.99701697059113
     99.99681030398689
     99.99659309342526
     99.99636499951085
     99.99612567915098
     99.99587478567123
     99.99561196893164
     99.99533687544289
     99.99504914848254
     99.99474842821164
     99.99443435179082
     99.99410655349668
     99.99376466483766
     99.99340831466979
     99.99303712931220
     99.99265073266186
     99.99224874630823
     99.99183078964718
     99.99139647999432
     99.99094543269786
     99.99047726125050
     99.98999157740083
     99.98948799126373
     99.98896611143022
     99.98842554507604
     99.98786589806966
     99.98728677507917
     99.98668777967818
     99.98606851445086
     99.98542858109566
     99.98476758052576
     99.98408511248336
     99.98338067377345
     99.98263237018821
     99.97734809630781
     99.02884765299390
      0.00000000000000
    100.00000000000000
     99.99999999999758
     99.99999999998336
     99.99999999993446
     99.99999999980602
     99.99999999952091
     99.99999999895772
     99.99999999793751
     99.99999999620871
     99.99999999343102
     99.99999998915790
     99.99999998281815
     99.99999997369623
     99.99999996091179
     99.99999994339828
     99.99999991988099
     99.99999988885412
     99.99999984855745
     99.99999979695245
     99.99999973169788
     99.99999965012503
     99.99999954921260
     99.99999942556136
     99.99999927536861
     99.99999909440228
     99.99999887797539
     99.99999862091983
     99.99999831756074
     99.99999796169053
     99.99999754654310
     99.99999706476817
     99.99999650840591
     99.99999586886155
     99.99999513688033
     99.99999430252277
     99.99999335514001
     99.99999228334978
     99.99999107501257
     99.99998971720805
     99.99998819621214
     99.99998649747427
     99.99998460559520
     99.99998250430535
     99.99998017644350
     99.99997760393599
     99.99997476777644
     99.99997164800610
     99.99996822369459
     99.99996447292123
     99.99996037275697
     99.99995589924683
     99.99995102739297
     99.99994573113828
     99.99993998335061
     99.99993375580758
     99.99992701918194
     99.99991974302768
     99.99991189576645
     99.99990344467500
     99.99989435587288
     99.99988459431086
     99.99987412376007
     99.99986290680162
     99.99985090481688
     99.99983807797831
     99.99982438524106
     99.99980978433496
     99.99979423175718
     99.99977768276570
     99.99976009137301
     99.99974141034072
     99.99972159117452
     99.99970058411994
     99.99967833815842
     99.99965480100424
     99.99962991910176
     99.99960363762341
     99.99957590046813
     99.99954665026036
     99.99951582834956
     99.99948337481038
     99.99944922844311
     99.99941332677490
     99.99937560606139
     99.99933600128878
     99.99929444617639
     99.99925087317982
     99.99920521349461
     99.99915739706003
     99.99910735256380
     99.99905500744693
     99.99900028790906
     99.99894311891441
     99.99888342419790
     99.99882112626949
     99.99875614593368
     99.99868830040920
     99.99859601092173
     99.99398663050317
     99.04600747419876
      0.00000000000000
    100.00000000000000
    100.00000000000000
     99.99999999999991
     99.99999999999959
     99.99999999999868
     99.99999999999639
     99.99999999999146
     99.99999999998168
     99.99999999996372
     99.99999999993265
     99.99999999988152
     99.99999999980061
     99.99999999967693
     99.99999999949347
     99.99999999922818
     99.99999999885323
     99.99999999833382
     99.99999999762714
     99.99999999668105
     99.99999999543279
     99.99999999380734
     99.99999999171611
     99.99999998905511
     99.99999998570324
     99.99999998152023
     99.99999997634499
     99.99999996999318
     99.99999996225523
     99.99999995289386
     99.99999994164186
     99.99999992819946
     99.99999991223180
     99.99999989336618
     99.99999987118927
     99.99999984524430
     99.99999981502798
     99.99999977998750
     99.99999973951742
     99.99999969295632
     99.99999963958362
     99.99999957861608
     99.99999950920441
     99.99999943042970
     99.99999934129981
     99.99999924074578
     99.99999912761801
     99.99999900068241
     99.99999885861675
     99.99999870000657
     99.99999852334126
     99.99999832701015
     99.99999810929835
     99.99999786838271
     99.99999760232775
     99.99999730908135
     99.99999698647068
     99.99999663219796
     99.99999624383612
     99.99999581882463
     99.99999535446518
     99.99999484791729
     99.99999429619415
     99.99999369615807
     99.99999304451642
     99.99999233781691
     99.99999157244363
     99.99999074461239
     99.99998985036650
     99.99998888557251
     99.99998784591573
     99.99998672689601
     99.99998552382338
     99.99998423181377
     99.99998284578481
     99.99998136045150
     99.99997977032200
     99.99997806969340
     99.99997625264760
     99.99997431304725
     99.99997224453146
     99.99997004051195
     99.99996769416882
     99.99996519844657
     99.99996254605038
     99.99995972944193
     99.99995674083566
     99.99995357219497
     99.99995021522848
     99.99994666138618
     99.99994290185583
     99.99993892755951
     99.99993472914976
     99.99993029700639
     99.99992562123283
     99.99992069165053
     99.99991549730792
     99.99990992458788
     99.99988246442928
     99.99534046848241
     99.04741692700637
      0.00000000000000
    100.00000000000000
    100.00000000000000
    100.00000000000001
     99.99999999999999
     99.99999999999999
     99.99999999999999
     99.99999999999996
     99.99999999999986
     99.99999999999970
     99.99999999999937
     99.99999999999881
     99.99999999999790
     99.99999999999639
     99.99999999999402
     99.99999999999038
     99.99999999998498
     99.99999999997716
     99.99999999996602
     99.99999999995050
     99.99999999992916
     99.99999999990028
     99.99999999986169
     99.99999999981078
     99.99999999974439
     99.99999999965866
     99.99999999954908
     99.99999999941022
     99.99999999923581
     99.99999999901841
     99.99999999874942
     99.99999999841890
     99.99999999801538
     99.99999999752571
     99.99999999693493
     99.99999999622607
     99.99999999537982
     99.99999999437456
     99.99999999318584
     99.99999999178640
     99.99999999014571
     99.99999998822987
     99.99999998600121
     99.99999998341804
     99.99999998043434
     99.99999997699942
     99.99999997305760
     99.99999996854778
     99.99999996340323
     99.99999995755101
     99.99999995091173
     99.99999994339903
     99.99999993491913
     99.99999992537053
     99.99999991464347
     99.99999990261932
     99.99999988917027
     99.99999987415875
     99.99999985743685
     99.99999983884594
     99.99999981821591
     99.99999979536472
     99.99999977009777
     99.99999974220734
     99.99999971147199
     99.99999967765577
     99.99999964050775
     99.99999959976131
     99.99999955513339
     99.99999950632387
     99.99999945301487
     99.99999939486999
     99.99999933153357
     99.99999926262998
     99.99999918776291
     99.99999910651435
     99.99999901844409
     99.99999892308877
     99.99999881996111
     99.99999870854910
     99.99999858831511
     99.99999845869499
     99.99999831909739
     99.99999816890268
     99.99999800746221
     99.99999783409739
     99.99999764809868
     99.99999744872483
     99.99999723520183
     99.99999700672200
     99.99999676244312
     99.99999650148742
     99.99999622294054
     99.99999592585075
     99.99999560922780
     99.99999527203965
     99.99999491272392
     99.99999442729718
     99.99997231655257
     99.99543593699819
     99.04751724995563
      0.00000000000000
    100.00000000000000
    100.00000000000000
    100.00000000000001
     99.99999999999999
    100.00000000000001
    100.00000000000003
    100.00000000000006
    100.00000000000007
    100.00000000000006
    100.00000000000006
    100.00000000000006
    100.00000000000007
    100.00000000000006
    100.00000000000004
    100.00000000000001
     99.99999999999993
     99.99999999999979
     99.99999999999960
     99.99999999999936
     99.99999999999901
     99.99999999999852
     99.99999999999788
     99.99999999999700
     99.99999999999581
     99.99999999999420
     99.99999999999208
     99.99999999998934
     99.99999999998580
     99.99999999998126
     99.99999999997546
     99.99999999996813
     99.99999999995896
     99.99999999994756
     99.99999999993344
     99.99999999991607
     99.99999999989483
     99.99999999986900
     99.99999999983777
     99.99999999980012
     99.99999999975503
     99.99999999970125
     99.99999999963732
     99.99999999956169
     99.99999999947255
     99.99999999936789
     99.99999999924542
     99.99999999910261
     99.99999999893662
     99.99999999874429
     99.99999999852211
     99.99999999826623
     99.99999999797231
     99.99999999763563
     99.99999999725102
     99.99999999681270
     99.99999999631437
     99.99999999574919
     99.99999999510960
     99.99999999438741
     99.99999999357368
     99.99999999265866
     99.99999999163178
     99.99999999048158
     99.99999998919569
     99.99999998776066
     99.99999998616202
     99.99999998438415
     99.99999998241022
     99.99999998022210
     99.99999997780037
     99.99999997512420
     99.99999997217115
     99.99999996891731
     99.99999996533707
     99.99999996140302
     99.99999995708599
     99.99999995235480
     99.99999994717624
     99.99999994151501
     99.99999993533353
     99.99999992859196
     99.99999992124792
     99.99999991325646
     99.99999990457007
     99.99999989513834
     99.99999988490796
     99.99999987382263
     99.99999986182283
     99.99999984884575
     99.99999983482510
     99.99999981969118
     99.99999980337036
     99.99999978578532
     99.99999976685463
     99.99999974649042
     99.99999972411051
     99.99999959674878
     99.99997786625161
     99.99544188988118
     99.04752356375779
      0.00000000000000
    100.00000000000000
     99.99999999999999
     99.99999999999997
     99.99999999999996
     99.99999999999994
     99.99999999999994
     99.99999999999994
     99.99999999999994
     99.99999999999994
     99.99999999999994
     99.99999999999997
     99.99999999999997
     99.99999999999997
     99.99999999999997
     99.99999999999997
     99.99999999999997
     99.99999999999997
     99.99999999999996
     99.99999999999993
     99.99999999999993
     99.99999999999990
     99.99999999999987
     99.99999999999989
     99.99999999999987
     99.99999999999982
     99.99999999999977
     99.99999999999972
     99.99999999999966
     99.99999999999957
     99.99999999999947
     99.99999999999930
     99.99999999999910
     99.99999999999886
     99.99999999999858
     99.99999999999820
     99.99999999999770
     99.99999999999710
     99.99999999999636
     99.99999999999548
     99.99999999999436
     99.99999999999298
     99.99999999999133
     99.99999999998933
     99.99999999998690
     99.99999999998401
     99.99999999998057
     99.99999999997648
     99.99999999997165
     99.99999999996589
     99.99999999995916
     99.99999999995127
     99.99999999994206
     99.99999999993130
     99.99999999991886
     99.99999999990445
     99.99999999988778
     99.99999999986855
     99.99999999984648
     99.99999999982117
     99.99999999979224
     99.99999999975918
     99.99999999972158
     99.99999999967882
     99.99999999963035
     99.99999999957548
     99.99999999951349
     99.99999999944360
     99.99999999936499
     99.99999999927667
     99.99999999917765
     99.99999999906680
     99.99999999894294
     99.99999999880470
     99.99999999865071
     99.99999999847941
     99.99999999828913
     99.99999999807807
     99.99999999784430