# vtk DataFile Version 3.0
Non-uniform Rectilinear - Rectilinear Grid
ASCII
DATASET RECTILINEAR_GRID
DIMENSIONS   5   5   1
X_COORDINATES   5 float
      0.00000000000000
      0.16666666666667
      0.50000000000000
      0.83333333333333
      1.00000000000000
Y_COORDINATES   5 float
      0.00000000000000
      0.16666666666667
      0.50000000000000
      0.83333333333333
      1.00000000000000
Z_COORDINATES   1 float
      1.00000000000000
CELL_DATA               25
SCALARS ae float
LOOKUP_TABLE default
      0.00000000000000
      0.00000000000000
      0.00000000000000
      0.00000000000000
      0.00000000000000
      0.00000000000000
      0.26923076923077
      0.26923076923077
      0.53846153846154
      0.00000000000000
      0.00000000000000
      0.26923076923077
      0.26923076923077
      0.53846153846154
      0.00000000000000
      0.00000000000000
      0.26923076923077
      0.26923076923077
      0.53846153846154
      0.00000000000000
      0.00000000000000
      0.00000000000000
      0.00000000000000
      0.00000000000000
      0.00000000000000
SCALARS aw float
LOOKUP_TABLE default
      0.00000000000000
      0.00000000000000
      0.00000000000000
      0.00000000000000
      0.00000000000000
      0.00000000000000
      0.53846153846154
      0.26923076923077
      0.26923076923077
      0.00000000000000
      0.00000000000000
      0.53846153846154
      0.26923076923077
      0.26923076923077
      0.00000000000000
      0.00000000000000
      0.53846153846154
      0.26923076923077
      0.26923076923077
      0.00000000000000
      0.00000000000000
      0.00000000000000
      0.00000000000000
      0.00000000000000
      0.00000000000000
SCALARS an float
LOOKUP_TABLE default
      0.00000000000000
      0.00000000000000
      0.00000000000000
      0.00000000000000
      0.00000000000000
      0.00000000000000
      0.26923076923077
      0.26923076923077
      0.26923076923077
      0.00000000000000
      0.00000000000000
      0.26923076923077
      0.26923076923077
      0.26923076923077
      0.00000000000000
      0.00000000000000
      0.53846153846154
      0.53846153846154
      0.53846153846154
      0.00000000000000
      0.00000000000000
      0.00000000000000
      0.00000000000000
      0.00000000000000
      0.00000000000000
SCALARS as float
LOOKUP_TABLE default
      0.00000000000000
      0.00000000000000
      0.00000000000000
      0.00000000000000
      0.00000000000000
      0.00000000000000
      0.53846153846154
      0.53846153846154
      0.53846153846154
      0.00000000000000
      0.00000000000000
      0.26923076923077
      0.26923076923077
      0.26923076923077
      0.00000000000000
      0.00000000000000
      0.26923076923077
      0.26923076923077
      0.26923076923077
      0.00000000000000
      0.00000000000000
      0.00000000000000
      0.00000000000000
      0.00000000000000
      0.00000000000000
SCALARS ap float
LOOKUP_TABLE default
      1.00000000000000
      1.00000000000000
      1.00000000000000
      1.00000000000000
      1.00000000000000
      1.00000000000000
      1.61538461538461
      1.34615384615385
      1.61538461538462
      1.00000000000000
      1.00000000000000
      1.34615384615385
      1.07692307692308
      1.34615384615385
      1.00000000000000
      1.00000000000000
      1.61538461538462
      1.34615384615385
      1.61538461538462
      1.00000000000000
      1.00000000000000
      1.00000000000000
      1.00000000000000
      1.00000000000000
      1.00000000000000
SCALARS b float
LOOKUP_TABLE default
      0.00000000000000
      0.00000000000000
      0.00000000000000
      0.00000000000000
      0.00000000000000
      0.00000000000000
      0.00000000000000
      0.00000000000000
      0.00000000000000
      0.00000000000000
      0.00000000000000
      0.00000000000000
      0.00000000000000
      0.00000000000000
      0.00000000000000
      0.00000000000000
      0.00000000000000
      0.00000000000000
      0.00000000000000
      0.00000000000000
      0.00000000000000
    100.00000000000000
    100.00000000000000
    100.00000000000000
      0.00000000000000
SCALARS T float
LOOKUP_TABLE default
      0.00000000000000
      0.00000000000000
      0.00000000000000
      0.00000000000000
      0.00000000000000
      0.00000000000000
     50.00000000000000
     50.00000000000000
     50.00000000000000
      0.00000000000000
      0.00000000000000
     50.00000000000000
     50.00000000000000
     50.00000000000000
      0.00000000000000
      0.00000000000000
     50.00000000000000
     50.00000000000000
     50.00000000000000
      0.00000000000000
      0.00000000000000
    100.00000000000000
    100.00000000000000
    100.00000000000000
      0.00000000000000
      0.00000000000000
      0.00000000000000
      0.00000000000000
      0.00000000000000
      0.00000000000000
      0.00000000000000
     16.66666666666667
     30.00000000000000
     16.66666666666666
      0.00000000000000
      0.00000000000000
     30.00000000000000
     50.00000000000000
     30.00000000000000
      0.00000000000000
      0.00000000000000
     50.00000000000000
     70.00000000000000
     50.00000000000000
      0.00000000000000
      0.00000000000000
    100.00000000000000
    100.00000000000000
    100.00000000000000
      0.00000000000000
      0.00000000000000
      0.00000000000000
      0.00000000000000
      0.00000000000000
      0.00000000000000
      0.00000000000000
     10.00000000000000
     16.66666666666666
     10.00000000000000
      0.00000000000000
      0.00000000000000
     23.33333333333333
     40.00000000000000
     23.33333333333333
      0.00000000000000
      0.00000000000000
     49.99999999999999
     70.00000000000000
     50.00000000000000
      0.00000000000000
      0.00000000000000
    100.00000000000000
    100.00000000000000
    100.00000000000000
      0.00000000000000
      0.00000000000000
      0.00000000000000
      0.00000000000000
      0.00000000000000
      0.00000000000000
      0.00000000000000
      6.66666666666667
     12.00000000000000
      6.66666666666667
      0.00000000000000
      0.00000000000000
     20.00000000000000
     33.33333333333334
     20.00000000000000
      0.00000000000000
      0.00000000000000
     48.88888888888888
     68.00000000000000
     48.88888888888889
      0.00000000000000
      0.00000000000000
    100.00000000000000
    100.00000000000000
    100.00000000000000
      0.00000000000000
      0.00000000000000
      0.00000000000000
      0.00000000000000
      0.00000000000000
      0.00000000000000
      0.00000000000000
      5.33333333333333
      9.33333333333333
      5.33333333333333
      0.00000000000000
      0.00000000000000
     17.77777777777778
     30.00000000000000
     17.77777777777778
      0.00000000000000
      0.00000000000000
     47.99999999999999
     66.22222222222221
     48.00000000000001
      0.00000000000000
      0.00000000000000
    100.00000000000000
    100.00000000000000
    100.00000000000000
      0.00000000000000
      0.00000000000000
      0.00000000000000
      0.00000000000000
      0.00000000000000
      0.00000000000000
      0.00000000000000
      4.51851851851852
      8.13333333333333
      4.51851851851852
      0.00000000000000
      0.00000000000000
     16.66666666666667
     27.77777777777778
     16.66666666666667
      0.00000000000000
      0.00000000000000
     47.33333333333333
     65.20000000000000
     47.33333333333334
      0.00000000000000
      0.00000000000000
    100.00000000000000
    100.00000000000000
    100.00000000000000
      0.00000000000000
      0.00000000000000
      0.00000000000000
      0.00000000000000
      0.00000000000000
      0.00000000000000
      0.00000000000000
      4.13333333333333
      7.36296296296296
      4.13333333333333
      0.00000000000000
      0.00000000000000
     15.92592592592593
     26.66666666666667
     15.92592592592593
      0.00000000000000
      0.00000000000000
     46.97777777777778
     64.48888888888888
     46.97777777777778
      0.00000000000000
      0.00000000000000
    100.00000000000000
    100.00000000000000
    100.00000000000000
      0.00000000000000
      0.00000000000000
      0.00000000000000
      0.00000000000000
      0.00000000000000
      0.00000000000000
      0.00000000000000
      3.88148148148148
      6.98666666666667
      3.88148148148148
      0.00000000000000
      0.00000000000000
     15.55555555555556
     25.92592592592593
     15.55555555555556
      0.00000000000000
      0.00000000000000
     46.73580246913580
     64.12444444444445
     46.73580246913581
      0.00000000000000
      0.00000000000000
    100.00000000000000
    100.00000000000000
    100.00000000000000
      0.00000000000000
      0.00000000000000
      0.00000000000000
      0.00000000000000
      0.00000000000000
      0.00000000000000
      0.00000000000000
      3.75703703703704
      6.73777777777778
      3.75703703703704
      0.00000000000000
      0.00000000000000
     15.30864197530864
     25.55555555555556
     15.30864197530865
      0.00000000000000
      0.00000000000000
     46.61333333333333
     63.87950617283951
     46.61333333333334
      0.00000000000000
      0.00000000000000
    100.00000000000000
    100.00000000000000
    100.00000000000000
      0.00000000000000
      0.00000000000000
      0.00000000000000
      0.00000000000000
      0.00000000000000
      0.00000000000000
      0.00000000000000
      3.67440329218107
      6.61392592592593
      3.67440329218107
      0.00000000000000
      0.00000000000000
     15.18518518518519
     25.30864197530865
     15.18518518518519
      0.00000000000000
      0.00000000000000
     46.53135802469136
     63.75644444444444
     46.53135802469136
      0.00000000000000
      0.00000000000000
    100.00000000000000
    100.00000000000000
    100.00000000000000
      0.00000000000000
      0.00000000000000
      0.00000000000000
      0.00000000000000
      0.00000000000000
      0.00000000000000
      0.00000000000000
      3.63318518518519
      6.53148971193416
      3.63318518518519
      0.00000000000000
      0.00000000000000
     15.10288065843622
     25.18518518518519
     15.10288065843622
      0.00000000000000
      0.00000000000000
     46.49027160493827
     63.67427160493827
     46.49027160493827
      0.00000000000000
      0.00000000000000
    100.00000000000000
    100.00000000000000
    100.00000000000000
      0.00000000000000
      0.00000000000000
      0.00000000000000
      0.00000000000000
      0.00000000000000
      0.00000000000000
      0.00000000000000
      3.60572839506173
      6.49031111111111
      3.60572839506173
      0.00000000000000
      0.00000000000000
     15.06172839506173
     25.10288065843622
     15.06172839506173
      0.00000000000000
      0.00000000000000
     46.46285871056241
     63.63314567901234
     46.46285871056241
      0.00000000000000
      0.00000000000000
    100.00000000000000
    100.00000000000000
    100.00000000000000
      0.00000000000000
      0.00000000000000
      0.00000000000000
      0.00000000000000
      0.00000000000000
      0.00000000000000
      0.00000000000000
      3.59200658436214
      6.46286748971194
      3.59200658436214
      0.00000000000000
      0.00000000000000
     15.03429355281207
     25.06172839506173
     15.03429355281207
      0.00000000000000
      0.00000000000000
     46.44914567901234
     63.60571961591220
     46.44914567901234
      0.00000000000000
      0.00000000000000
    100.00000000000000
    100.00000000000000
    100.00000000000000
      0.00000000000000
      0.00000000000000
      0.00000000000000
      0.00000000000000
      0.00000000000000
      0.00000000000000
      0.00000000000000
      3.58286017375400
      6.44914831275720
      3.58286017375400
      0.00000000000000
      0.00000000000000
     15.02057613168724
     25.03429355281207
     15.02057613168724
      0.00000000000000
      0.00000000000000
     46.44000219478738
     63.59200395061728
     46.44000219478738
      0.00000000000000
      0.00000000000000
    100.00000000000000
    100.00000000000000
    100.00000000000000
      0.00000000000000
      0.00000000000000
      0.00000000000000
      0.00000000000000
      0.00000000000000
      0.00000000000000
      0.00000000000000
      3.57828740740741
      6.44000278006401
      3.57828740740741
      0.00000000000000
      0.00000000000000
     15.01143118427069
     25.02057613168724
     15.01143118427069
      0.00000000000000
      0.00000000000000
     46.43543001371742
     63.58285958847737
     46.43543001371742
      0.00000000000000
      0.00000000000000
    100.00000000000000
    100.00000000000000
    100.00000000000000
      0.00000000000000
      0.00000000000000
      0.00000000000000
      0.00000000000000
      0.00000000000000
      0.00000000000000
      0.00000000000000
      3.57523899405578
      6.43543018930041
      3.57523899405578
      0.00000000000000
      0.00000000000000
     15.00685871056241
     25.01143118427069
     15.00685871056242
      0.00000000000000
      0.00000000000000
     46.43238179545801
     63.57828723182442
     46.43238179545801
      0.00000000000000
      0.00000000000000
    100.00000000000000
    100.00000000000000
    100.00000000000000
      0.00000000000000
      0.00000000000000
      0.00000000000000
      0.00000000000000
      0.00000000000000
      0.00000000000000
      0.00000000000000
      3.57371481664380
      6.43238183447645
      3.57371481664380
      0.00000000000000
      0.00000000000000
     15.00381039475690
     25.00685871056242
     15.00381039475690
      0.00000000000000
      0.00000000000000
     46.43085765706446
     63.57523895503734
     46.43085765706446
      0.00000000000000
      0.00000000000000
    100.00000000000000
    100.00000000000000
    100.00000000000000
      0.00000000000000
      0.00000000000000
      0.00000000000000
      0.00000000000000
      0.00000000000000
      0.00000000000000
      0.00000000000000
      3.57269870487223
      6.43085766877001
      3.57269870487222
      0.00000000000000
      0.00000000000000
     15.00228623685414
     25.00381039475690
     15.00228623685414
      0.00000000000000
      0.00000000000000
     46.42984155829903
     63.57371480493826
     46.42984155829904
      0.00000000000000
      0.00000000000000
    100.00000000000000
    100.00000000000000
    100.00000000000000
      0.00000000000000
      0.00000000000000
      0.00000000000000
      0.00000000000000
      0.00000000000000
      0.00000000000000
      0.00000000000000
      3.57219065093736
      6.42984156090027
      3.57219065093736
      0.00000000000000
      0.00000000000000
     15.00127013158563
     25.00228623685414
     15.00127013158563
      0.00000000000000
      0.00000000000000
     46.42933350696539
     63.57269870227098
     46.42933350696540
      0.00000000000000
      0.00000000000000
    100.00000000000000
    100.00000000000000
    100.00000000000000
      0.00000000000000
      0.00000000000000
      0.00000000000000
      0.00000000000000
      0.00000000000000
      0.00000000000000
      0.00000000000000
      3.57185194874765
      6.42933350774577
      3.57185194874765
      0.00000000000000
      0.00000000000000
     15.00076207895138
     25.00127013158563
     15.00076207895138
      0.00000000000000
      0.00000000000000
     46.42899480564277
     63.57219065015698
     46.42899480564277
      0.00000000000000
      0.00000000000000
    100.00000000000000
    100.00000000000000
    100.00000000000000
      0.00000000000000
      0.00000000000000
      0.00000000000000
      0.00000000000000
      0.00000000000000
      0.00000000000000
      0.00000000000000
      3.57168259778286
      6.42899480581619
      3.57168259778286
      0.00000000000000
      0.00000000000000
     15.00042337719521
     25.00076207895138
     15.00042337719521
      0.00000000000000
      0.00000000000000
     46.42882545485138
     63.57185194857422
     46.42882545485139
      0.00000000000000
      0.00000000000000
    100.00000000000000
    100.00000000000000
    100.00000000000000
      0.00000000000000
      0.00000000000000
      0.00000000000000
      0.00000000000000
      0.00000000000000
      0.00000000000000
      0.00000000000000
      3.57156969716857
      6.42882545490342
      3.57156969716857
      0.00000000000000
      0.00000000000000
     15.00025402631712
     25.00042337719521
     15.00025402631713
      0.00000000000000
      0.00000000000000
     46.42871255429490
     63.57168259773082
     46.42871255429491
      0.00000000000000
      0.00000000000000
    100.00000000000000
    100.00000000000000
    100.00000000000000
      0.00000000000000
      0.00000000000000
      0.00000000000000
      0.00000000000000
      0.00000000000000
      0.00000000000000
      0.00000000000000
      3.57151324687009
      6.42871255430647
      3.57151324687009
      0.00000000000000
      0.00000000000000
     15.00014112573174
     25.00025402631713
     15.00014112573174
      0.00000000000000
      0.00000000000000
     46.42865610400799
     63.57156969715700
     46.42865610400799
      0.00000000000000
      0.00000000000000
    100.00000000000000
    100.00000000000000
    100.00000000000000
      0.00000000000000
      0.00000000000000
      0.00000000000000
      0.00000000000000
      0.00000000000000
      0.00000000000000
      0.00000000000000
      3.57147561333970
      6.42865610401146
      3.57147561333970
      0.00000000000000
      0.00000000000000
     15.00008467543904
     25.00014112573174
     15.00008467543904
      0.00000000000000
      0.00000000000000
     46.42861847048145
     63.57151324686661
     46.42861847048146
      0.00000000000000
      0.00000000000000
    100.00000000000000
    100.00000000000000
    100.00000000000000
      0.00000000000000
      0.00000000000000
      0.00000000000000
      0.00000000000000
      0.00000000000000
      0.00000000000000
      0.00000000000000
      3.57145679657508
      6.42861847048223
      3.57145679657508
      0.00000000000000
      0.00000000000000
     15.00004704191058
     25.00008467543904
     15.00004704191058
      0.00000000000000
      0.00000000000000
     46.42859965371761
     63.57147561333893
     46.42859965371761
      0.00000000000000
      0.00000000000000
    100.00000000000000
    100.00000000000000
    100.00000000000000
      0.00000000000000
      0.00000000000000
      0.00000000000000
      0.00000000000000
      0.00000000000000
      0.00000000000000
      0.00000000000000
      3.57144425206547
      6.42859965371784
      3.57144425206547
      0.00000000000000
      0.00000000000000
     15.00002822514635
     25.00004704191058
     15.00002822514635
      0.00000000000000
      0.00000000000000
     46.42858710920824
     63.57145679657485
     46.42858710920825
      0.00000000000000
      0.00000000000000
    100.00000000000000
    100.00000000000000
    100.00000000000000
      0.00000000000000
      0.00000000000000
      0.00000000000000
      0.00000000000000
      0.00000000000000
      0.00000000000000
      0.00000000000000
      3.57143797981070
      6.42858710920830
      3.57143797981070
      0.00000000000000
      0.00000000000000
     15.00001568063686
     25.00002822514635
     15.00001568063686
      0.00000000000000
      0.00000000000000
     46.42858083695352
     63.57144425206540
     46.42858083695354
      0.00000000000000
      0.00000000000000
    100.00000000000000
    100.00000000000000
    100.00000000000000
      0.00000000000000
      0.00000000000000
      0.00000000000000
      0.00000000000000
      0.00000000000000
      0.00000000000000
      0.00000000000000
      3.57143379830753
      6.42858083695355
      3.57143379830753
      0.00000000000000
      0.00000000000000
     15.00000940838212
     25.00001568063686
     15.00000940838212
      0.00000000000000
      0.00000000000000
     46.42857665545038
     63.57143797981069
     46.42857665545038
      0.00000000000000
      0.00000000000000
    100.00000000000000
    100.00000000000000
    100.00000000000000
      0.00000000000000
      0.00000000000000
      0.00000000000000
      0.00000000000000
      0.00000000000000
      0.00000000000000
      0.00000000000000
      3.57143170755594
      6.42857665545038
      3.57143170755594
      0.00000000000000
      0.00000000000000
     15.00000522687895
     25.00000940838212
     15.00000522687895
      0.00000000000000
      0.00000000000000
     46.42857456469880
     63.57143379830751
     46.42857456469880
      0.00000000000000
      0.00000000000000
    100.00000000000000
    100.00000000000000
    100.00000000000000
      0.00000000000000
      0.00000000000000
      0.00000000000000
      0.00000000000000
      0.00000000000000
      0.00000000000000
      0.00000000000000
      3.57143031372156
      6.42857456469880
      3.57143031372155
      0.00000000000000
      0.00000000000000
     15.00000313612738
     25.00000522687895
     15.00000313612737
      0.00000000000000
      0.00000000000000
     46.42857317086441
     63.57143170755594
     46.42857317086442
      0.00000000000000
      0.00000000000000
    100.00000000000000
    100.00000000000000
    100.00000000000000
      0.00000000000000
      0.00000000000000
      0.00000000000000
      0.00000000000000
      0.00000000000000
      0.00000000000000
      0.00000000000000
      3.57142961680436
      6.42857317086441
      3.57142961680436
      0.00000000000000
      0.00000000000000
     15.00000174229299
     25.00000313612737
     15.00000174229299
      0.00000000000000
      0.00000000000000
     46.42857247394721
     63.57143031372156
     46.42857247394723
      0.00000000000000
      0.00000000000000
    100.00000000000000
    100.00000000000000
    100.00000000000000
      0.00000000000000
      0.00000000000000
      0.00000000000000
      0.00000000000000
      0.00000000000000
      0.00000000000000
      0.00000000000000
      3.57142915219290
      6.42857247394722
      3.57142915219290
      0.00000000000000
      0.00000000000000
     15.00000104537579
     25.00000174229299
     15.00000104537580
      0.00000000000000
      0.00000000000000
     46.42857200933575
     63.57142961680436
     46.42857200933575
      0.00000000000000
      0.00000000000000
    100.00000000000000
    100.00000000000000
    100.00000000000000
      0.00000000000000
      0.00000000000000
      0.00000000000000
      0.00000000000000
      0.00000000000000
      0.00000000000000
      0.00000000000000
      3.57142891988717
      6.42857200933576
      3.57142891988717
      0.00000000000000
      0.00000000000000
     15.00000058076433
     25.00000104537579
     15.00000058076433
      0.00000000000000
      0.00000000000000
     46.42857177703002
     63.57142915219290
     46.42857177703003
      0.00000000000000
      0.00000000000000
    100.00000000000000
    100.00000000000000
    100.00000000000000
      0.00000000000000
      0.00000000000000
      0.00000000000000
      0.00000000000000
      0.00000000000000
      0.00000000000000
      0.00000000000000
      3.57142876501668
      6.42857177703002
      3.57142876501668
      0.00000000000000
      0.00000000000000
     15.00000034845860
     25.00000058076433
     15.00000034845860
      0.00000000000000
      0.00000000000000
     46.42857162215954
     63.57142891988716
     46.42857162215955
      0.00000000000000
      0.00000000000000
    100.00000000000000
    100.00000000000000
    100.00000000000000
      0.00000000000000
      0.00000000000000
      0.00000000000000
      0.00000000000000
      0.00000000000000
      0.00000000000000
      0.00000000000000
      3.57142868758144
      6.42857162215954
      3.57142868758144
      0.00000000000000
      0.00000000000000
     15.00000019358811
     25.00000034845860
     15.00000019358811
      0.00000000000000
      0.00000000000000
     46.42857154472429
     63.57142876501668
     46.42857154472430
      0.00000000000000
      0.00000000000000
    100.00000000000000
    100.00000000000000
    100.00000000000000
      0.00000000000000
      0.00000000000000
      0.00000000000000
      0.00000000000000
      0.00000000000000
      0.00000000000000
      0.00000000000000
      3.57142863595794
      6.42857154472429
      3.57142863595794
      0.00000000000000
      0.00000000000000
     15.00000011615287
     25.00000019358811
     15.00000011615287
      0.00000000000000
      0.00000000000000
     46.42857149310080
     63.57142868758143
     46.42857149310080
      0.00000000000000
      0.00000000000000
    100.00000000000000
    100.00000000000000
    100.00000000000000
      0.00000000000000
      0.00000000000000
      0.00000000000000
      0.00000000000000
      0.00000000000000
      0.00000000000000
      0.00000000000000
      3.57142861014619
      6.42857149310080
      3.57142861014619
      0.00000000000000
      0.00000000000000
     15.00000006452937
     25.00000011615287
     15.00000006452937
      0.00000000000000
      0.00000000000000
     46.42857146728905
     63.57142863595794
     46.42857146728905
      0.00000000000000
      0.00000000000000
    100.00000000000000
    100.00000000000000
    100.00000000000000
      0.00000000000000
      0.00000000000000
      0.00000000000000
      0.00000000000000
      0.00000000000000
      0.00000000000000
      0.00000000000000
      3.57142859293836
      6.42857146728905
      3.57142859293836
      0.00000000000000
      0.00000000000000
     15.00000003871762
     25.00000006452937
     15.00000003871762
      0.00000000000000
      0.00000000000000
     46.42857145008121
     63.57142861014619
     46.42857145008122
      0.00000000000000
      0.00000000000000
    100.00000000000000
    100.00000000000000
    100.00000000000000
      0.00000000000000
      0.00000000000000
      0.00000000000000
      0.00000000000000
      0.00000000000000
      0.00000000000000
      0.00000000000000
      3.57142858433445
      6.42857145008122
      3.57142858433445
      0.00000000000000
      0.00000000000000
     15.00000002150979
     25.00000003871762
     15.00000002150979
      0.00000000000000
      0.00000000000000
     46.42857144147730
     63.57142859293835
     46.42857144147730
      0.00000000000000
      0.00000000000000
    100.00000000000000
    100.00000000000000
    100.00000000000000
      0.00000000000000
      0.00000000000000
      0.00000000000000
      0.00000000000000
      0.00000000000000
      0.00000000000000
      0.00000000000000
      3.57142857859850
      6.42857144147730
      3.57142857859850
      0.00000000000000
      0.00000000000000
     15.00000001290588
     25.00000002150979
     15.00000001290588
      0.00000000000000
      0.00000000000000
     46.42857143574135
     63.57142858433443
     46.42857143574136
      0.00000000000000
      0.00000000000000
    100.00000000000000
    100.00000000000000
    100.00000000000000
      0.00000000000000
      0.00000000000000
      0.00000000000000
      0.00000000000000
      0.00000000000000
      0.00000000000000
      0.00000000000000
      3.57142857573053
      6.42857143574136
      3.57142857573053
      0.00000000000000
      0.00000000000000
     15.00000000716993
     25.00000001290587
     15.00000000716993
      0.00000000000000
      0.00000000000000
     46.42857143287339
     63.57142857859850
     46.42857143287339
      0.00000000000000
      0.00000000000000
    100.00000000000000
    100.00000000000000
    100.00000000000000
      0.00000000000000
      0.00000000000000
      0.00000000000000
      0.00000000000000
      0.00000000000000
      0.00000000000000
      0.00000000000000
      3.57142857381855
      6.42857143287339
      3.57142857381855
      0.00000000000000
      0.00000000000000
     15.00000000430196
     25.00000000716994
     15.00000000430196
      0.00000000000000
      0.00000000000000
     46.42857143096141
     63.57142857573054
     46.42857143096141
      0.00000000000000
      0.00000000000000
    100.00000000000000
    100.00000000000000
    100.00000000000000
      0.00000000000000
      0.00000000000000
      0.00000000000000
      0.00000000000000
      0.00000000000000
      0.00000000000000
      0.00000000000000
      3.57142857286256
      6.42857143096141
      3.57142857286256
      0.00000000000000
      0.00000000000000
     15.00000000238998
     25.00000000430196
     15.00000000238998
      0.00000000000000
      0.00000000000000
     46.42857143000541
     63.57142857381854
     46.42857143000543
      0.00000000000000
      0.00000000000000
    100.00000000000000
    100.00000000000000
    100.00000000000000
      0.00000000000000
      0.00000000000000
      0.00000000000000
      0.00000000000000
      0.00000000000000
      0.00000000000000
      0.00000000000000
      3.57142857222523
      6.42857143000541
      3.57142857222523
      0.00000000000000
      0.00000000000000
     15.00000000143399
     25.00000000238998
     15.00000000143399
      0.00000000000000
      0.00000000000000
     46.42857142936808
     63.57142857286256
     46.42857142936809
      0.00000000000000
      0.00000000000000
    100.00000000000000
    100.00000000000000
    100.00000000000000
      0.00000000000000
      0.00000000000000
      0.00000000000000
      0.00000000000000
      0.00000000000000
      0.00000000000000
      0.00000000000000
      3.57142857190657
      6.42857142936809
      3.57142857190657
      0.00000000000000
      0.00000000000000
     15.00000000079666
     25.00000000143399
     15.00000000079666
      0.00000000000000
      0.00000000000000
     46.42857142904942
     63.57142857222522
     46.42857142904942
      0.00000000000000
      0.00000000000000
    100.00000000000000