# vtk DataFile Version 3.0
Non-uniform Rectilinear - Rectilinear Grid
ASCII
DATASET RECTILINEAR_GRID
DIMENSIONS  51  51   1
X_COORDINATES  51 float
      0.00000000000000
      0.01020408163265
      0.03061224489796
      0.05102040816327
      0.07142857142857
      0.09183673469388
      0.11224489795918
      0.13265306122449
      0.15306122448980
      0.17346938775510
      0.19387755102041
      0.21428571428571
      0.23469387755102
      0.25510204081633
      0.27551020408163
      0.29591836734694
      0.31632653061224
      0.33673469387755
      0.35714285714286
      0.37755102040816
      0.39795918367347
      0.41836734693878
      0.43877551020408
      0.45918367346939
      0.47959183673469
      0.50000000000000
      0.52040816326531
      0.54081632653061
      0.56122448979592
      0.58163265306122
      0.60204081632653
      0.62244897959184
      0.64285714285714
      0.66326530612245
      0.68367346938776
      0.70408163265306
      0.72448979591837
      0.74489795918367
      0.76530612244898
      0.78571428571429
      0.80612244897959
      0.82653061224490
      0.84693877551020
      0.86734693877551
      0.88775510204082
      0.90816326530612
      0.92857142857143
      0.94897959183673
      0.96938775510204
      0.98979591836735
      1.00000000000000
Y_COORDINATES  51 float
      0.00000000000000
      0.01020408163265
      0.03061224489796
      0.05102040816327
      0.07142857142857
      0.09183673469388
      0.11224489795918
      0.13265306122449
      0.15306122448980
      0.17346938775510
      0.19387755102041
      0.21428571428571
      0.23469387755102
      0.25510204081633
      0.27551020408163
      0.29591836734694
      0.31632653061224
      0.33673469387755
      0.35714285714286
      0.37755102040816
      0.39795918367347
      0.41836734693878
      0.43877551020408
      0.45918367346939
      0.47959183673469
      0.50000000000000
      0.52040816326531
      0.54081632653061
      0.56122448979592
      0.58163265306122
      0.60204081632653
      0.62244897959184
      0.64285714285714
      0.66326530612245
      0.68367346938776
      0.70408163265306
      0.72448979591837
      0.74489795918367
      0.76530612244898
      0.78571428571429
      0.80612244897959
      0.82653061224490
      0.84693877551020
      0.86734693877551
      0.88775510204082
      0.90816326530612
      0.92857142857143
      0.94897959183673
      0.96938775510204
      0.98979591836735
      1.00000000000000
Z_COORDINATES   1 float
      1.00000000000000
POINT_DATA             2601
SCALARS T float
LOOKUP_TABLE default
      0.00000000000000
      0.00000000000000
      0.00000000000000
      0.00000000000000
      0.00000000000000
      0.00000000000000
      0.00000000000000
      0.00000000000000
      0.00000000000000
      0.00000000000000
      0.00000000000000
      0.00000000000000
      0.00000000000000
      0.00000000000000
      0.00000000000000
      0.00000000000000
      0.00000000000000
      0.00000000000000
      0.00000000000000
      0.00000000000000
      0.00000000000000
      0.00000000000000
      0.00000000000000
      0.00000000000000
      0.00000000000000
      0.00000000000000
      0.00000000000000
      0.00000000000000
      0.00000000000000
      0.00000000000000
      0.00000000000000
      0.00000000000000
      0.00000000000000
      0.00000000000000
      0.00000000000000
      0.00000000000000
      0.00000000000000
      0.00000000000000
      0.00000000000000
      0.00000000000000
      0.00000000000000
      0.00000000000000
      0.00000000000000
      0.00000000000000
      0.00000000000000
      0.00000000000000
      0.00000000000000
      0.00000000000000
      0.00000000000000
      0.00000000000000
      0.00000000000000
      0.00000000000000
      0.01139933652362
      0.03414902129997
      0.05675202314337
      0.07911148875289
      0.10113195298432
      0.12271986498931
      0.14378408643344
      0.16423635546923
      0.18399171127287
      0.20296887522601
      0.22109058618189
      0.23828388863913
      0.25448037400327
      0.26961637639093
      0.28363312558213
      0.29647686071248
      0.30809890909267
      0.31845573512686
      0.32750896466615
      0.33522539027525
      0.34157696281766
      0.34654077448917
      0.35009903797014
      0.35223906574636
      0.35295325289218
      0.35223906574636
      0.35009903797014
      0.34654077448917
      0.34157696281766
      0.33522539027525
      0.32750896466616
      0.31845573512687
      0.30809890909268
      0.29647686071249
      0.28363312558213
      0.26961637639094
      0.25448037400327
      0.23828388863914
      0.22109058618189
      0.20296887522602
      0.18399171127287
      0.16423635546924
      0.14378408643344
      0.12271986498931
      0.10113195298432
      0.07911148875289
      0.05675202314337
      0.03414902129998
      0.01139933652362
      0.00000000000000
      0.00000000000000
      0.03424699784174
      0.10259374683282
      0.17049960566389
      0.23767346763664
      0.30382841117923
      0.36868328552859
      0.43196421170840
      0.49340597963958
      0.55275332566878
      0.60976207867497
      0.66420016704390
      0.71584848301009
      0.76450160498585
      0.80996838236880
      0.85207239080674
      0.89065226888711
      0.92556194962348
      0.95667080187494
      0.98386369792808
      1.00704102389186
      1.02611864932328
      1.04102787165745
      1.05171534961458
      1.05814303786888
      1.06028813296756
      1.05814303786889
      1.05171534961459
      1.04102787165745
      1.02611864932329
      1.00704102389188
      0.98386369792810
      0.95667080187495
      0.92556194962350
      0.89065226888713
      0.85207239080675
      0.80996838236881
      0.76450160498586
      0.71584848301011
      0.66420016704392
      0.60976207867499
      0.55275332566879
      0.49340597963959
      0.43196421170841
      0.36868328552860
      0.30382841117923
      0.23767346763664
      0.17049960566389
      0.10259374683282
      0.03424699784174
      0.00000000000000
      0.00000000000000
      0.05724190585220
      0.17147936252554
      0.28497918504250
      0.39725436495021
      0.50782493856695
      0.61622065423692
      0.72198349523141
      0.82467002571122
      0.92385353308694
      1.01912594676037
      1.11009952030775
      1.19640827137052
      1.27770918056018
      1.35368315729057
      1.42403578638775
      1.48849787440452
      1.54682581863795
      1.59880182482001
      1.64423400127803
      1.68295635803946
      1.71482873892476
      1.73973671320132
      1.75759145096041
      1.76832960314558
      1.77191320323884
      1.76832960314558
      1.75759145096042
      1.73973671320134
      1.71482873892478
      1.68295635803948
      1.64423400127805
      1.59880182482004
      1.54682581863797
      1.48849787440455
      1.42403578638777
      1.35368315729060
      1.27770918056020
      1.19640827137054
      1.11009952030778
      1.01912594676039
      0.92385353308696
      0.82467002571124
      0.72198349523142
      0.61622065423693
      0.50782493856696
      0.39725436495022
      0.28497918504250
      0.17147936252554
      0.05724190585221
      0.00000000000000
      0.00000000000000
      0.08048316889365
      0.24110261237440
      0.40068340702996
      0.55853986855423
      0.71399632390075
      0.86639089761989
      1.01507908926812
      1.15943709488586
      1.29886483420613
      1.43278865497042
      1.56066369605472
      1.68197590160242
      1.79624368859205
      1.90301927984372
      2.00188972304722
      2.09247762370326
      2.17444162570166
      2.24747667748697
      2.31131412432232
      2.36572166806089
      2.41050323513265
      2.44549879126029
      2.47058413787779
      2.48567072051176
      2.49070547369421
      2.48567072051177
      2.47058413787780
      2.44549879126031
      2.41050323513267
      2.36572166806092
      2.31131412432236
      2.24747667748700
      2.17444162570169
      2.09247762370330
      2.00188972304726
      1.90301927984375
      1.79624368859208
      1.68197590160245
      1.56066369605476
      1.43278865497045
      1.29886483420616
      1.15943709488588
      1.01507908926814
      0.86639089761991
      0.71399632390077
      0.55853986855425
      0.40068340702997
      0.24110261237441
      0.08048316889365
      0.00000000000000
      0.00000000000000
      0.10407132624148
      0.31176451104815
      0.51811196214817
      0.72222537833526
      0.92322959086098
      1.12026752307261
      1.31250486933394
      1.49913443035640
      1.67938005387955
      1.85250014285854
      2.01779070733621
      2.17458795039011
      2.32227039235946
      2.46026055044246
      2.58802620225146
      2.70508127165683
      2.81098638297552
      2.90534913510083
      2.98782415046028
      3.05811295474595
      3.11596374228139
      3.16117107882610
      3.19357558877534
      3.21306366732610
      3.21956725051112
      3.21306366732611
      3.19357558877535
      3.16117107882612
      3.11596374228142
      3.05811295474599
      2.98782415046032
      2.90534913510088
      2.81098638297557
      2.70508127165688
      2.58802620225150
      2.46026055044251
      2.32227039235950
      2.17458795039016
      2.01779070733625
      1.85250014285857
      1.67938005387959
      1.49913443035643
      1.31250486933397
      1.12026752307263
      0.92322959086100
      0.72222537833527
      0.51811196214818
      0.31176451104815
      0.10407132624149
      0.00000000000000
      0.00000000000000
      0.12810895126545
      0.38377214342812
      0.63777455217861
      0.88902009177668
      1.13642913813408
      1.37894473447412
      1.61553843463692
      1.84521570332425
      2.06702080809492
      2.28004115524550
      2.48341104003877
      2.67631480025947
      2.85798938001012
      3.02772632731195
      3.18487326385586
      3.32883487769347
      3.45907349943902
      3.57510932947668
      3.67652038766802
      3.76294225817716
      3.83406770041668
      3.88964619298316
      3.92948347106710
      3.95344110950187
      3.96143619369377
      3.95344110950188
      3.92948347106712
      3.88964619298319
      3.83406770041672
      3.76294225817720
      3.67652038766807
      3.57510932947673
      3.45907349943908
      3.32883487769353
      3.18487326385592
      3.02772632731200
      2.85798938001017
      2.67631480025952
      2.48341104003882
      2.28004115524554
      2.06702080809496
      1.84521570332429
      1.61553843463695
      1.37894473447415
      1.13642913813410
      0.88902009177671
      0.63777455217863
      0.38377214342813
      0.12810895126545
      0.00000000000000
      0.00000000000000
      0.15270128665743
      0.45744055921978
      0.76019401136065
      1.05965129845763
      1.35452213542304
      1.64354384205109
      1.92548843141323
      2.19916914020634
      2.46344631992766
      2.71723262998677
      2.95949749731066
      3.18927083059535
      3.40564600010584
      3.60778211493537
      3.79490564816237
      3.96631147581780
      4.12136340760586
      4.25949429569412
      4.38020581255314
      4.48306798987301
      4.56771860821996
      4.63386252161762
      4.68127099300285
      4.70978110591531
      4.71929530525497
      4.70978110591532
      4.68127099300287
      4.63386252161765
      4.56771860822000
      4.48306798987306
      4.38020581255319
      4.25949429569418
      4.12136340760592
      3.96631147581786
      3.79490564816244
      3.60778211493544
      3.40564600010591
      3.18927083059541
      2.95949749731072
      2.71723262998683
      2.46344631992771
      2.19916914020639
      1.92548843141327
      1.64354384205112
      1.35452213542307
      1.05965129845765
      0.76019401136067
      0.45744055921979
      0.15270128665744
      0.00000000000000
      0.00000000000000
      0.17795692280170
      0.53309479543231
      0.88590963558560
      1.23486895526878
      1.57846426304762
      1.91522006689183
      2.24370230875610
      2.56252610615739
      2.87036270141944
      3.16594554745976
      3.44807548861792
      3.71562502470132
      3.96754167487813
      4.20285048415665
      4.42065573803555
      4.62014196980434
      4.80057435946717
      4.96129863313527
      5.10174057697171
      5.22140528053598
      5.31987622096662
      5.39681429225847
      5.45195687340530
      5.48511701589542
      5.49618281548935
      5.48511701589543
      5.45195687340533
      5.39681429225851
      5.31987622096667
      5.22140528053604
      5.10174057697178
      4.96129863313534
      4.80057435946725
      4.62014196980442
      4.42065573803562
      4.20285048415673
      3.96754167487820
      3.71562502470139
      3.44807548861799
      3.16594554745982
      2.87036270141950
      2.56252610615745
      2.24370230875615
      1.91522006689187
      1.57846426304765
      1.23486895526881
      0.88590963558562
      0.53309479543232
      0.17795692280170
      0.00000000000000
      0.00000000000000
      0.20398853191846
      0.61107206412149
      1.01548078027955
      1.41545062398271
      1.80924589460483
      2.19516985371009
      2.57157463055912
      2.93687027424444
      3.28953283212932
      3.62811136981089
      3.95123388499559
      4.25761210470916
      4.54604519054367
      4.81542240877223
      5.06472485001321
      5.29302630589100
      5.49949342731711
      5.68338530040177
      5.84405258165598
      5.98093633432593
      6.09356670284527
      6.18156155303749
      6.24462519245753
      6.28254726876473
      6.29520192490458
      6.28254726876475
      6.24462519245756
      6.18156155303754
      6.09356670284533
      5.98093633432600
      5.84405258165606
      5.68338530040186
      5.49949342731720
      5.29302630589109
      5.06472485001330
      4.81542240877232
      4.54604519054376
      4.25761210470924
      3.95123388499567
      3.62811136981096
      3.28953283212939
      2.93687027424451
      2.57157463055918
      2.19516985371014
      1.80924589460487
      1.41545062398274
      1.01548078027957
      0.61107206412151
      0.20398853191847
      0.00000000000000
      0.00000000000000
      0.23091367266881
      0.69172414885489
      1.14949079742714
      1.60220686577592
      2.04789883767668
      2.48463882278188
      2.91055608552268
      3.32384752812831
      3.72278698303846
      4.10573321465438
      4.47113657683952
      4.81754431859076
      5.14360457380954
      5.44806911036941
      5.72979494734777
      5.98774497642275
      6.22098774350167
      6.42869655949165
      6.61014811491724
      6.76472077225904
      6.89189270304347
      6.99124002458098
      7.06243507461481
      7.10524494179357
      7.11953034659162
      7.10524494179359
      7.06243507461484
      6.99124002458104
      6.89189270304353
      6.76472077225912
      6.61014811491733
      6.42869655949175
      6.22098774350177
      5.98774497642285
      5.72979494734787
      5.44806911036951
      5.14360457380964
      4.81754431859085
      4.47113657683961
      4.10573321465447
      3.72278698303853
      3.32384752812838
      2.91055608552274
      2.48463882278193
      2.04789883767673
      1.60220686577596
      1.14949079742717
      0.69172414885491
      0.23091367266881
      0.00000000000000
      0.00000000000000
      0.25885568257034
      0.77542006120129
      1.28855139479682
      1.79598720401524
      2.29550376754163
      2.78493051421508
      3.26216336061789
      3.72517676970365
      4.17203435723732
      4.60089792892371
      5.01003488911195
      5.39782401899900
      5.76275967572809
      6.10345451154152
      6.41864085257877
      6.70717090894330
      6.96801601076760
      7.20026507913814
      7.40312254625424
      7.57590593674133
      7.71804331248018
      7.82907076761968
      7.90863013961855
      7.95646707719448
      7.97242957786609
      7.95646707719449
      7.90863013961859
      7.82907076761974
      7.71804331248025
      7.57590593674141
      7.40312254625434
      7.20026507913825
      6.96801601076771
      6.70717090894342
      6.41864085257888
      6.10345451154163
      5.76275967572820
      5.39782401899911
      5.01003488911205
      4.60089792892380
      4.17203435723740
      3.72517676970373
      3.26216336061796
      2.78493051421513
      2.29550376754168
      1.79598720401528
      1.28855139479685
      0.77542006120131
      0.25885568257034
      0.00000000000000
      0.00000000000000
      0.28794467898122
      0.86254901858221
      1.43330751654209
      1.99768678794447
      2.55319851425685
      3.09741610591564
      3.62799007302633
      4.14266183282671
      4.63927574727857
      5.11578925468578
      5.57028103167968
      6.00095719255887
      6.40615559855551
      6.78434840748263
      7.13414304247493
      7.45428179599619
      7.74364031147906
      8.00122520003057
      8.22617105421152
      8.41773711596288
      8.57530384250713
      8.69836959378973
      8.78654763903590
      8.83956364949026
      8.85725381047435
      8.83956364949027
      8.78654763903595
      8.69836959378980
      8.57530384250721
      8.41773711596298
      8.22617105421162
      8.00122520003069
      7.74364031147918
      7.45428179599631
      7.13414304247505
      6.78434840748275
      6.40615559855563
      6.00095719255899
      5.57028103167979
      5.11578925468588
      4.63927574727867
      4.14266183282680
      3.62799007302641
      3.09741610591570
      2.55319851425690
      1.99768678794451
      1.43330751654213
      0.86254901858223
      0.28794467898122
      0.00000000000000
      0.00000000000000
      0.31831869375312
      0.95352381760328
      1.58444286484325
      2.20825391696144
      2.82218739562275
      3.42354532216079
      4.00971899274097
      4.57820474129359
      5.12661754435919
      5.65270231085533
      6.15434279035580
      6.62956812099444
      7.07655711844513
      7.49364047735081
      7.87930111383397
      8.23217292107893
      8.55103823911301
      8.83482435528440
      9.08259935458893
      9.29356763038191
      9.46706534778587
      9.60255612598622
      9.69962717323498
      9.75798607124614
      9.77745836504060
      9.75798607124616
      9.69962717323503
      9.60255612598630
      9.46706534778597
      9.29356763038201
      9.08259935458905
      8.83482435528453
      8.55103823911315
      8.23217292107907
      7.87930111383410
      7.49364047735095
      7.07655711844527
      6.62956812099457
      6.15434279035592
      5.65270231085544
      5.12661754435930
      4.57820474129369
      4.00971899274106
      3.42354532216086
      2.82218739562281
      2.20825391696148
      1.58444286484329
      0.95352381760330
      0.31831869375313
      0.00000000000000
      0.00000000000000
      0.35012497218069
      1.04878469323348
      1.74268620826447
      2.42869861943285
      3.10375182910884
      3.76485879436004
      4.40913583447877
      5.03382059524245
      5.63628737800365
      6.21405965401432
      6.76481969788696
      7.28641538261065
      7.77686427687196
      8.23435526963324
      8.65724801442248
      9.04407053536345
      9.39351536860019
      9.70443462739527
      9.97583437846784
     10.20686870317961
     10.39683379225773
     10.54516238912364
     10.65141885666088
     10.71529509720785
     10.73660750718487
     10.71529509720787
     10.65141885666094
     10.54516238912372
     10.39683379225783
     10.20686870317973
      9.97583437846797
      9.70443462739541
      9.39351536860034
      9.04407053536361
      8.65724801442263
      8.23435526963339
      7.77686427687211
      7.28641538261080
      6.76481969788709
      6.21405965401444
      5.63628737800377
      5.03382059524256
      4.40913583447886
      3.76485879436011
      3.10375182910890
      2.42869861943290
      1.74268620826450
      1.04878469323350
      0.35012497218070
      0.00000000000000
      0.00000000000000
      0.38352147391638
      1.14880377488438
      1.90881865554644
      2.66010252339410
      3.39926250701643
      4.12300219168777
      4.82814495556696
      5.51165442718848
      6.17065171839266
      6.80242922930474
      7.40446096455988
      7.97440943468152
      8.51012933679053
      9.00966830987893
      9.47126513885002
      9.89334583734255
     10.27451807251899
     10.61356440721826
     10.90943482869686
     11.16123901160005
     11.36823872893063
     11.52984078157842
     11.64559076706562
     11.71516795372801
     11.73838146927165
     11.71516795372804
     11.64559076706569
     11.52984078157851
     11.36823872893075
     11.16123901160018
     10.90943482869701
     10.61356440721842
     10.27451807251915
      9.89334583734273
      9.47126513885019
      9.00966830987911
      8.51012933679069
      7.97440943468168
      7.40446096456003
      6.80242922930488
      6.17065171839279
      5.51165442718859
      4.82814495556706
      4.12300219168785
      3.39926250701650
      2.66010252339415
      1.90881865554648
      1.14880377488440
      0.38352147391639
      0.00000000000000
      0.00000000000000
      0.41867862251635
      1.25409027684004
      2.08368211564089
      2.90363031157797
      3.71019348387157
      4.49974250980346
      5.26878736890791
      6.01400043954622
      6.73223583906749
      7.42054458024516
      8.07618549635874
      8.69663205475686
      9.27957532572098
      9.82292349423272
     10.32479839374639
     10.78352960262759
     11.19764667690438
     11.56587010025100
     11.88710151749006
     12.16041378558159
     12.38504133027461
     12.56037124118186
     12.68593547628318
     12.76140448135479
     12.78658246243354
     12.76140448135482
     12.68593547628325
     12.56037124118196
     12.38504133027473
     12.16041378558173
     11.88710151749022
     11.56587010025118
     11.19764667690456
     10.78352960262777
     10.32479839374658
      9.82292349423290
      9.27957532572116
      8.69663205475704
      8.07618549635890
      7.42054458024530
      6.73223583906763
      6.01400043954635
      5.26878736890802
      4.49974250980355
      3.71019348387164
      2.90363031157803
      2.08368211564093
      1.25409027684007
      0.41867862251636
      0.00000000000000
      0.00000000000000
      0.45578136182481
      1.36519659431734
      2.26818921859707
      3.16054312340250
      4.03813860708479
      4.89698699474221
      5.73326157070987
      6.54332412301515
      7.32374661807936
      8.07132775624239
      8.78310438586516
      9.45635796225769
     10.08861641709470
     10.67765194757492
     11.22147533926507
     11.71832750250642
     12.16666893220888
     12.56516779937989
     12.91268735541902
     13.20827328294961
     13.45114156539207
     13.64066737657881
     13.77637541551785
     13.85793203296180
     13.88513941774019
     13.85793203296183
     13.77637541551792
     13.64066737657892
     13.45114156539221
     13.20827328294976
     12.91268735541920
     12.56516779938008
     12.16666893220907
     11.71832750250662
     11.22147533926527
     10.67765194757513
     10.08861641709489
      9.45635796225788
      8.78310438586533
      8.07132775624255
      7.32374661807950
      6.54332412301528
      5.73326157070998
      4.89698699474230
      4.03813860708487
      3.16054312340257
      2.26818921859712
      1.36519659431736
      0.45578136182482
      0.00000000000000
      0.00000000000000
      0.49503159228983
      1.48272552000615
      2.46333504102546
      3.43221435634724
      4.38483082631915
      5.31680529136616
      6.22394779616887
      7.10228786371905
      7.94809875398556
      8.75791544077235
      9.52854632859360
     10.25707899130518
     10.94088043281573
     11.57759253969717
     12.16512351322199
     12.70163613591308
     13.18553375003334
     13.61544480962878
     13.99020682184434
     14.30885042539321
     14.57058427175253
     14.77478128421052
     14.92096677623454
     15.00880881722120
     15.03811114259041
     15.00880881722123
     14.92096677623462
     14.77478128421063
     14.57058427175268
     14.30885042539338
     13.99020682184452
     13.61544480962898
     13.18553375003355
     12.70163613591329
     12.16512351322221
     11.57759253969738
     10.94088043281593
     10.25707899130538
      9.52854632859378
      8.75791544077252
      7.94809875398572
      7.10228786371919
      6.22394779616899
      5.31680529136626
      4.38483082631924
      3.43221435634731
      2.46333504102551
      1.48272552000618
      0.49503159228984
      0.00000000000000
      0.00000000000000
      0.53665107961763
      1.60733885239068
      2.67021106914921
      3.72014843463881
      4.75216505047451
      5.76145554822971
      6.74343645887486
      7.69378078170030
      8.60844509336442
      9.48368892426004
     10.31608649642322
     11.10253124154453
     11.84023378315606
     12.52671426516565
     13.15979003800173
     13.73755977787914
     14.25838512237073
     14.72087086724529
     15.12384469692368
     15.46633732501346
     15.74756381200111
     15.96690671226283
     16.12390158797505
     16.21822531708444
     16.24968751816535
     16.21822531708447
     16.12390158797513
     15.96690671226296
     15.74756381200126
     15.46633732501364
     15.12384469692389
     14.72087086724550
     14.25838512237095
     13.73755977787936
     13.15979003800196
     12.52671426516588
     11.84023378315628
     11.10253124154473
     10.31608649642341
      9.48368892426022
      8.60844509336458
      7.69378078170045
      6.74343645887499
      5.76145554822982
      4.75216505047460
      3.72014843463888
      2.67021106914926
      1.60733885239071
      0.53665107961764
      0.00000000000000
      0.00000000000000
      0.58088495340707
      1.73976774078838
      2.89002194853963
      4.02600326258116
      5.14222539270640
      6.23341539219846
      7.29456170939490
      8.32095371083639
      9.30821191350451
     10.25230866647213
     11.14957949128596
     11.99672569528421
     12.79080919308828
     13.52924069979698
     14.20976259572890
     14.83042781521926
     15.38957609431293
     15.88580884004530
     16.31796377357867
     16.68509036572251
     16.98642693896205
     17.22138016485087
     17.38950754630450
     17.49050334496214
     17.52418829588808
     17.49050334496218
     17.38950754630459
     17.22138016485100
     16.98642693896223
     16.68509036572270
     16.31796377357889
     15.88580884004552
     15.38957609431316
     14.83042781521950
     14.20976259572914
     13.52924069979722
     12.79080919308851
     11.99672569528443
     11.14957949128616
     10.25230866647232
      9.30821191350468
      8.32095371083655
      7.29456170939504
      6.23341539219857
      5.14222539270650
      4.02600326258123
      2.89002194853969
      1.73976774078841
      0.58088495340708
      0.00000000000000
      0.00000000000000
      0.62800594662874
      1.88082520881478
      3.12410572163748
      4.35161727443659
      5.55731786556738
      6.73541891845786
      7.88044127566407
      8.98726043873921
     10.05114018333763
     11.06775433682981
     12.03319710695532
     12.94398285520843
     13.79703659410554
     14.58967674519415
     15.31959182988611
     15.98481279294402
     16.58368259960391
     17.11482462503136
     17.57711119160989
     17.96963342532224
     18.29167341325984
     18.54267946186001
     18.72224508741568
     18.83009222055721
     18.86605897544826
     18.83009222055725
     18.72224508741578
     18.54267946186015
     18.29167341326001
     17.96963342532244
     17.57711119161011
     17.11482462503160
     16.58368259960416
     15.98481279294428
     15.31959182988637
     14.58967674519440
     13.79703659410579
     12.94398285520866
     12.03319710695553
     11.06775433683002
     10.05114018333781
      8.98726043873937
      7.88044127566422
      6.73541891845798
      5.55731786556748
      4.35161727443667
      3.12410572163754
      1.88082520881481
      0.62800594662875
      0.00000000000000
      0.00000000000000
      0.67831957092128
      2.03142142620309
      3.37395845475660
      4.69904224795709
      6.00000987666449
      7.27050114039648
      8.50452403605840
      9.69650658511197
     10.84133404426941
     11.93437139054581
     12.97147174448793
     13.94897202447882
     14.86367758292080
     15.71283785697684
     16.49411518566564
     17.20554892705456
     17.84551688611458
     18.41269586885317
     18.90602294249371
     19.32465873068283
     19.66795382688089
     19.93541918189930
     20.12670112092649
     20.24156147438815
     20.27986316477587
     20.24156147438819
     20.12670112092659
     19.93541918189946
     19.66795382688108
     19.32465873068304
     18.90602294249395
     18.41269586885342
     17.84551688611484
     17.20554892705483
     16.49411518566591
     15.71283785697710
     14.86367758292105
     13.94897202447906
     12.97147174448815
     11.93437139054602
     10.84133404426960
      9.69650658511215
      8.50452403605855
      7.27050114039660
      6.00000987666460
      4.69904224795717
      3.37395845475666
      2.03142142620312
      0.67831957092129
      0.00000000000000
      0.00000000000000
      0.73217048177399
      2.19258247031827
      3.64126442322636
      5.07058338596738
      6.47317825273279
      7.84205173040004
      9.17064714305504
     10.45290782137402
     11.68331801807451
     12.85692543658759
     13.96934645596249
     15.01675591528814
     15.99586385611130
     16.90388191411546
     17.73848212873316
     18.49775084348156