# vtk DataFile Version 3.0
Non-uniform Rectilinear - Rectilinear Grid
ASCII
DATASET RECTILINEAR_GRID
DIMENSIONS  82  82   1
X_COORDINATES  82 float
      0.00000000000000
      0.00001000000000
      0.00147312510760
      0.00300332051871
      0.00459189121241
      0.00624008829673
      0.00794909999429
      0.00972004220745
      0.01155394870079
      0.01345176094712
      0.01541431769296
      0.01744234430887
      0.01953644199994
      0.02169707696166
      0.02392456957643
      0.02621908375510
      0.02858061653715
      0.03100898807096
      0.03350383210277
      0.03606458710829
      0.03869048820493
      0.04138055998460
      0.04413361040654
      0.04694822588732
      0.04982276771922
      0.05275536994066
      0.05574393877087
      0.05878615370732
      0.06187947036759
      0.06502112513792
      0.06820814166890
      0.07143733923451
      0.07470534294517
      0.07800859577837
      0.08134337236265
      0.08470579442297
      0.08809184776830
      0.09149740067598
      0.09491822350352
      0.09835000933640
      0.10178839546227
      0.10522898544635
      0.10866737157222
      0.11209915740510
      0.11551998023264
      0.11892553314032
      0.12231158648565
      0.12567400854597
      0.12900878513025
      0.13231203796345
      0.13558004167411
      0.13880923923972
      0.14199625577070
      0.14513791054103
      0.14823122720130
      0.15127344213775
      0.15426201096796
      0.15719461318940
      0.16006915502130
      0.16288377050208
      0.16563682092403
      0.16832689270369
      0.17095279380033
      0.17351354880585
      0.17600839283766
      0.17843676437147
      0.18079829715352
      0.18309281133219
      0.18532030394696
      0.18748093890868
      0.18957503659975
      0.19160306321566
      0.19356561996150
      0.19546343220783
      0.19729733870117
      0.19906828091433
      0.20077729261189
      0.20242548969621
      0.20401406038991
      0.20554425580102
      0.20701738090862
      0.20702738090862
Y_COORDINATES  82 float
      0.00000000000000
      0.00001000000000
      0.00147312510760
      0.00300332051871
      0.00459189121241
      0.00624008829673
      0.00794909999429
      0.00972004220745
      0.01155394870079
      0.01345176094712
      0.01541431769296
      0.01744234430887
      0.01953644199994
      0.02169707696166
      0.02392456957643
      0.02621908375510
      0.02858061653715
      0.03100898807096
      0.03350383210277
      0.03606458710829
      0.03869048820493
      0.04138055998460
      0.04413361040654
      0.04694822588732
      0.04982276771922
      0.05275536994066
      0.05574393877087
      0.05878615370732
      0.06187947036759
      0.06502112513792
      0.06820814166890
      0.07143733923451
      0.07470534294517
      0.07800859577837
      0.08134337236265
      0.08470579442297
      0.08809184776830
      0.09149740067598
      0.09491822350352
      0.09835000933640
      0.10178839546227
      0.10522898544635
      0.10866737157222
      0.11209915740510
      0.11551998023264
      0.11892553314032
      0.12231158648565
      0.12567400854597
      0.12900878513025
      0.13231203796345
      0.13558004167411
      0.13880923923972
      0.14199625577070
      0.14513791054103
      0.14823122720130
      0.15127344213775
      0.15426201096796
      0.15719461318940
      0.16006915502130
      0.16288377050208
      0.16563682092403
      0.16832689270369
      0.17095279380033
      0.17351354880585
      0.17600839283766
      0.17843676437147
      0.18079829715352
      0.18309281133219
      0.18532030394696
      0.18748093890868
      0.18957503659975
      0.19160306321566
      0.19356561996150
      0.19546343220783
      0.19729733870117
      0.19906828091433
      0.20077729261189
      0.20242548969621
      0.20401406038991
      0.20554425580102
      0.20701738090862
      0.20702738090862
Z_COORDINATES   1 float
      1.00000000000000
CELL_DATA             6561
SCALARS P float
LOOKUP_TABLE default
      0.00000000000000
      0.00000000000000
      0.00000000000000
      0.00000000000000
      0.00000000000000
      0.00000000000000
      0.00000000000000
      0.00000000000000
      0.00000000000000
      0.00000000000000
      0.00000000000000
      0.00000000000000
      0.00000000000000
      0.00000000000000
      0.00000000000000
      0.00000000000000
      0.00000000000000
      0.00000000000000
      0.00000000000000
      0.00000000000000
      0.00000000000000
      0.00000000000000
      0.00000000000000
      0.00000000000000
      0.00000000000000
      0.00000000000000
      0.00000000000000
      0.00000000000000
      0.00000000000000
      0.00000000000000
      0.00000000000000
      0.00000000000000
      0.00000000000000
      0.00000000000000
      0.00000000000000
      0.00000000000000
      0.00000000000000
      0.00000000000000
      0.00000000000000
      0.00000000000000
      0.00000000000000
      0.00000000000000
      0.00000000000000
      0.00000000000000
      0.00000000000000
      0.00000000000000
      0.00000000000000
      0.00000000000000
      0.00000000000000
      0.00000000000000
      0.00000000000000
      0.00000000000000
      0.00000000000000
      0.00000000000000
      0.00000000000000
      0.00000000000000
      0.00000000000000
      0.00000000000000
      0.00000000000000
      0.00000000000000
      0.00000000000000
      0.00000000000000
      0.00000000000000
      0.00000000000000
      0.00000000000000
      0.00000000000000
      0.00000000000000
      0.00000000000000
      0.00000000000000
      0.00000000000000
      0.00000000000000
      0.00000000000000
      0.00000000000000
      0.00000000000000
      0.00000000000000
      0.00000000000000
      0.00000000000000
      0.00000000000000
      0.00000000000000
      0.00000000000000
      0.00000000000000
      0.00000000000000
      0.01034010139489
      0.01041077680082
      0.01053900099283
      0.01067147051405
      0.01078525107159
      0.01087554555879
      0.01094479056471
      0.01099716398725
      0.01103678058301
      0.01106704179572
      0.01109053514984
      0.01110914539846
      0.01112421615531
      0.01113669761299
      0.01114726207572
      0.01115638782943
      0.01116441770101
      0.01117159915192
      0.01117811151417
      0.01118408449003
      0.01118961079356
      0.01119475489616
      0.01119955920258
      0.01120404855053
      0.01120823363076
      0.01121211371664
      0.01121567893921
      0.01121891222510
      0.01122179091979
      0.01122428804115
      0.01122637304699
      0.01122801195517
      0.01122916662403
      0.01122979298316
      0.01122983800251
      0.01122923521899
      0.01122789874098
      0.01122571581330
      0.01122253812891
      0.01121817265971
      0.01121237600999
      0.01120485167450
      0.01119524649452
      0.01118314628213
      0.01116807585768
      0.01114951085578
      0.01112690309211
      0.01109971978536
      0.01106749519824
      0.01102989307441
      0.01098677476776
      0.01093826524007
      0.01088480779383
      0.01082719948408
      0.01076660305416
      0.01070453751963
      0.01064285693743
      0.01058373382681
      0.01052966856909
      0.01048354726703
      0.01044876574595
      0.01042942375114
      0.01043056943350
      0.01045844381721
      0.01052064981407
      0.01062616506229
      0.01078513730469
      0.01100843071668
      0.01130690226381
      0.01169035012998
      0.01216599236950
      0.01273633230987
      0.01339589072754
      0.01411342804178
      0.01484837886787
      0.01554948666822
      0.01615169764598
      0.01658420179694
      0.01678698805706
      0.00000000000000
      0.00000000000000
      0.01043964415439
      0.01042915361857
      0.01046650293472
      0.01052499423318
      0.01058856707238
      0.01064707302593
      0.01069692412172
      0.01073771083889
      0.01077048761476
      0.01079673401293
      0.01081786898132
      0.01083508051794
      0.01084930222028
      0.01086124523328
      0.01087144344413
      0.01088029544072
      0.01088809842653
      0.01089507394486
      0.01090138677397
      0.01090715859354
      0.01091247782439
      0.01091740674771
      0.01092198673432
      0.01092624219092
      0.01093018365466
      0.01093381032899
      0.01093711224157
      0.01094007211032
      0.01094266692275
      0.01094486916501
      0.01094664758212
      0.01094796730955
      0.01094878919012
      0.01094906807638
      0.01094874991980
      0.01094776748091
      0.01094603459055
      0.01094343902207
      0.01093983401302
      0.01093502908006
      0.01092878425483
      0.01092080771018
      0.01091075315829
      0.01089821377038
      0.01088272661587
      0.01086377486716
      0.01084081612735
      0.01081331918413
      0.01078081411654
      0.01074295393544
      0.01069958294991
      0.01065080417770
      0.01059703649614
      0.01053905293676
      0.01047799510431
      0.01041536480173
      0.01035300137633
      0.01029306042501
      0.01023801466408
      0.01019069938320
      0.01015442095587
      0.01013313483667
      0.01013167785302
      0.01015601147216
      0.01021340812254
      0.01031250453189
      0.01046315925531
      0.01067607566891
      0.01096216799815
      0.01133163070193
      0.01179254999223
      0.01234930088659
      0.01298270240928
      0.01367702491627
      0.01439455600912
      0.01508004463847
      0.01566704517754
      0.01608361520674
      0.01626367541186
      0.00000000000000
      0.00000000000000
      0.01038188433176
      0.01034131077690
      0.01033295802847
      0.01034869754594
      0.01037804158879
      0.01041233552532
      0.01044569588595
      0.01047539719327
      0.01050072807746
      0.01052194353936
      0.01053964488218
      0.01055448055158
      0.01056702853757
      0.01057776521653
      0.01058706919487
      0.01059523616055
      0.01060249494377
      0.01060902145300
      0.01061494979028
      0.01062038079149
      0.01062538849331
      0.01063002503473
      0.01063432442839
      0.01063830554926
      0.01064197460271
      0.01064532725496
      0.01064835053423
      0.01065102454114
      0.01065332394058
      0.01065521914882
      0.01065667708011
      0.01065766128082
      0.01065813125507
      0.01065804077237
      0.01065733494280
      0.01065594586299
      0.01065378673546
      0.01065074459323
      0.01064667174513
      0.01064137508673
      0.01063461097455
      0.01062608144185
      0.01061543835519
      0.01060228008768
      0.01058612978097
      0.01056645758507
      0.01054270340752
      0.01051431297050
      0.01048078809536
      0.01044174970923
      0.01039700886828
      0.01034663781834
      0.01029103099254
      0.01023094617463
      0.01016751958422
      0.01010225511266
      0.01003699604281
      0.00997389533715
      0.00991540587749
      0.00986431300295
      0.00982382664927
      0.00979773814508
      0.00979062778181
      0.00980808767052
      0.00985690773269
      0.00994516732944
      0.01008217810662
      0.01027822719023
      0.01054408914849
      0.01089033648284
      0.01132589013787
      0.01184945130748
      0.01245785812503
      0.01312780669546
      0.01382112185456
      0.01448427705720
      0.01505147294353
      0.01545177696105
      0.01562192425890
      0.00000000000000
      0.00000000000000
      0.01022131613344
      0.01017294067635
      0.01014347744704
      0.01013551322269
      0.01014408129046
      0.01016169646506
      0.01018270055618
      0.01020343424302
      0.01022227484693
      0.01023876317118
      0.01025298654963
      0.01026523374268
      0.01027583120164
      0.01028507777986
      0.01029322558705
      0.01030047954771
      0.01030700306191
      0.01031292466971
      0.01031834398422
      0.01032333650847
      0.01032795742711
      0.01033224459392
      0.01033622094396
      0.01033989652678
      0.01034327031329
      0.01034633187957
      0.01034906301820
      0.01035143927167
      0.01035343132692
      0.01035500615665
      0.01035612774787
      0.01035675722371
      0.01035685214070
      0.01035636472735
      0.01035523880995
      0.01035340514777
      0.01035077495289
      0.01034723181785
      0.01034262340310
      0.01033674658201
      0.01032933475998
      0.01032008325397
      0.01030865540110
      0.01029461586008
      0.01027746036502
      0.01025662606473
      0.01023151409519
      0.01020152668506
      0.01016612016692
      0.01012487273916
      0.01007756212774
      0.01002424425008
      0.00996532109944
      0.00990158596272
      0.00983423764124
      0.00976486224504
      0.00969538995361
      0.00962804278341
      0.00956529560039
      0.00950987434193
      0.00946481126990
      0.00943356673141
      0.00942021157513
      0.00942964706453
      0.00946782403269
      0.00954191183717
      0.00966035009657
      0.00983267912973
      0.01006904827596
      0.01037988678128
      0.01077865640239
      0.01126595690068
      0.01183333078570
      0.01246074687350
      0.01311286960808
      0.01373856170912
      0.01427414706300
      0.01465180755379
      0.01481450639423
      0.00000000000000
      0.00000000000000
      0.00999463824804
      0.00994758293951
      0.00991025062861
      0.00989002584597
      0.00988623530316
      0.00989298429437
      0.00990513727890
      0.00991899075108
      0.00993255536447
      0.00994498971695
      0.00995607258481
      0.00996586343549
      0.00997452156114
      0.00998222300033
      0.00998912821068
      0.00999537275182
      0.01000106700039
      0.01000629868032
      0.01001113578651
      0.01001562913673
      0.01001981443206
      0.01002371391998
      0.01002733780296
      0.01003068552440
      0.01003374703347
      0.01003650409025
      0.01003893162676
      0.01004099912839
      0.01004267194668
      0.01004391240338
      0.01004468049985
      0.01004493401036
      0.01004462771180
      0.01004371148011
      0.01004212694645
      0.01003980231235
      0.01003664474752
      0.01003253006948
      0.01002729658587
      0.01002070505021
      0.01001246111820
      0.01000230589724
      0.00998984613073
      0.00997461135241
      0.00995605554694
      0.00993356810852
      0.00990649800725
      0.00987419437572
      0.00983606547982
      0.00979165509422
      0.00974073083004
      0.00968337388916
      0.00962005569828
      0.00955168583379
      0.00947961906605
      0.00940561742794
      0.00933177444022
      0.00926042015176
      0.00919403421756
      0.00913519721727
      0.00908660662512
      0.00905117383107
      0.00903220397527
      0.00903364241521
      0.00906035214068
      0.00911836850321
      0.00921504410724
      0.00935889164398
      0.00955856636206
      0.00983136972996
      0.01018711447282
      0.01062229404306
      0.01113290955663
      0.01170249517059
      0.01229928375886
      0.01287551739119
      0.01337085013230
      0.01372157239932
      0.01387646950086
      0.00000000000000
      0.00000000000000
      0.00972469254120
      0.00968219904288
      0.00964369180048
      0.00961790384998
      0.00960690919768
      0.00960681281754
      0.00961256832802
      0.00962117817360
      0.00963051891759
      0.00963955982375
      0.00964790405262
      0.00965546977328
      0.00966230792559
      0.00966851185063
      0.00967417801427
      0.00967939156748
      0.00968422256895
      0.00968872612785
      0.00969294362026
      0.00969690395200
      0.00970062460633
      0.00970411249788
      0.00970736473709
      0.00971036941389
      0.00971310648441
      0.00971554880595
      0.00971766331933
      0.00971941232456
      0.00972075474124
      0.00972164719065
      0.00972204468836
      0.00972190069597
      0.00972116624824
      0.00971978784152
      0.00971770372331
      0.00971483808320
      0.00971109200857
      0.00970632693676
      0.00970035532037
      0.00969285123960
      0.00968364165482
      0.00967238050303
      0.00965863909008
      0.00964190442674
      0.00962158179235
      0.00959700695047
      0.00956747279843
      0.00953227486910
      0.00949077899444
      0.00944251097230
      0.00938726177094
      0.00932519389060
      0.00925692803480
      0.00918358777384
      0.00910678551445
      0.00902854530908
      0.00895117387102
      0.00887710629446
      0.00880876316606
      0.00874845813828
      0.00869838905773
      0.00866073326165
      0.00863785083441
      0.00863257744806
      0.00864856029656
      0.00869057462222
      0.00876475029480
      0.00887862868192
      0.00904150317062
      0.00927571864401
      0.00957608604867
      0.00994840135505
      0.01039143319426
      0.01089249245536
      0.01142404205197
      0.01194259694849
      0.01239200953246
      0.01271295584835
      0.01285883879736
      0.00000000000000
      0.00000000000000
      0.00942506049890
      0.00938782781112
      0.00935122447490
      0.00932362597563
      0.00930858233192
      0.00930386330131
      0.00930520669984
      0.00930985838916
      0.00931581504257
      0.00932201176337
      0.00932797414757
      0.00933354182876
      0.00933869872843
      0.00934348371423
      0.00934794912558
      0.00935214390608
      0.00935610793326
      0.00935987081319
      0.00936345213464
      0.00936686201369
      0.00937010157644
      0.00937316335328
      0.00937603166664
      0.00937868311219
      0.00938108721335
      0.00938320729064
      0.00938500153843
      0.00938642424514
      0.00938742703366
      0.00938795994053
      0.00938797209975
      0.00938741175043
      0.00938622524367
      0.00938435467554
      0.00938173371757
      0.00937828119974
      0.00937389179876
      0.00936840533013
      0.00936149194781
      0.00935301403868
      0.00934270242770
      0.00933017551927
      0.00931496702131
      0.00929652049477
      0.00927419081257
      0.00924725625561
      0.00921494769249
      0.00917650236301
      0.00913124797185
      0.00907871609408
      0.00901877297820
      0.00895174446451
      0.00887850498781
      0.00880050233140
      0.00871970082818
      0.00863844373340
      0.00855925589658
      0.00848462520332
      0.00841681077545
      0.00835772490491
      0.00830892453762
      0.00827173071537
      0.00824747473124
      0.00823784336316
      0.00824525115696
      0.00827315774018
      0.00832627196590
      0.00841029574211
      0.00854586107311
      0.00873081391157
      0.00897154668750
      0.00927595586580
      0.00964573894399
      0.01007221700357
      0.01053258627202
      0.01098832161552
      0.01138808255404
      0.01167700706804
      0.01181221299139
      0.00000000000000
      0.00000000000000
      0.00910358837330
      0.00907128116523
      0.00903775434250
      0.00901033253395
      0.00899320590845
      0.00898535825348
      0.00898358107943
      0.00898517921073
      0.00898837679563
      0.00899215746223
      0.00899602844499
      0.00899979222775
      0.00900339445898
      0.00900683966384
      0.00901015040917
      0.00901334985386
      0.00901645533825
      0.00901947655730
      0.00902241533865
      0.00902526582160
      0.00902801464851
      0.00903064111857
      0.00903311737519
      0.00903540872483
      0.00903747416834
      0.00903926718810
      0.00904073678159
      0.00904182867177
      0.00904248656043
      0.00904265322846
      0.00904227123086
      0.00904128288293
      0.00903962917688
      0.00903724717617
      0.00903406526823
      0.00902999572453
      0.00902493099629
      0.00901857137255
      0.00901070476485
      0.00900120286536
      0.00898973209668
      0.00897588220393
      0.00895915182232
      0.00893893948171
      0.00891454179758
      0.00888516568862
      0.00884996547809
      0.00880811579041
      0.00875892503127
      0.00870198190531
      0.00863731254290
      0.00856551413524
      0.00848782770263
      0.00840612027033
      0.00832276432088
      0.00824042581694
      0.00816179542626
      0.00808931480651
      0.00802495607076
      0.00797010555522
      0.00792558401478
      0.00789181135428
      0.00786910452147
      0.00785807547068
      0.00786001490980
      0.00787714569068
      0.00791291045637
      0.00797649662443
      0.00807833648255
      0.00821451054589
      0.00839623841775
      0.00863282908684
      0.00892858959079
      0.00927879691013
      0.00966562194427
      0.01005595987914
      0.01040375026639
      0.01065876087403
      0.01078143883693
      0.00000000000000
      0.00000000000000
      0.00876469263775
      0.00873662378906
      0.00870639471763
      0.00868010941543
      0.00866210097616
      0.00865226863936
      0.00864820448042
      0.00864731647612
      0.00864821057722
      0.00864990996701
      0.00865192621059
      0.00865404960669
      0.00865620765219
      0.00865838542995
      0.00866058659385
      0.00866281650464
      0.00866507591789
      0.00866735908681
      0.00866965342516
      0.00867193956891
      0.00867419145908
      0.00867637639753
      0.00867845514928
      0.00868038219288
      0.00868210620584
      0.00868357083245
      0.00868471572589
      0.00868547779161
      0.00868579249017
      0.00868559499333
      0.00868482093237
      0.00868340643043
      0.00868128705630
      0.00867839520696
      0.00867465490851
      0.00866997010631
      0.00866418534301
      0.00865691209901
      0.00864817113231
      0.00863769079136
      0.00862512407462
      0.00861003581729
      0.00859188595494
      0.00857001547863
      0.00854364285720
      0.00851188349263
      0.00847380696777
      0.00842854227194
      0.00837542915374
      0.00831419711198
      0.00824513791069
      0.00816922892446
      0.00808816721587
      0.00800428880687
      0.00792037130233
      0.00783934520583
      0.00776396317738
      0.00769649119898
      0.00763848660984
      0.00759071348031
      0.00755321685331
      0.00752554431799
      0.00750708922650
      0.00749754870293
      0.00749731066604
      0.00750745081303
      0.00753097329217
      0.00757992310297
      0.00764601577114
      0.00773777489391
      0.00786550056696
      0.00803891306591
      0.00826429806387
      0.00854053976409
      0.00885474701600
      0.00917947971340
      0.00947435425251
      0.00969409385971
      0.00980251709367
      0.00000000000000
      0.00000000000000
      0.00841078566260
      0.00838622125520
      0.00835908093235
      0.00833431470431
      0.00831610526282
      0.00830493152615
      0.00829910634149
      0.00829630750694
      0.00829530230446
      0.00829520758863
      0.00829557311501
      0.00829620020092
      0.00829701439776
      0.00829799293344
      0.00829912905687
      0.00830041673020
      0.00830184503100
      0.00830339658188
      0.00830504736117
      0.00830676682768
      0.00830851802462
      0.00831025763591
      0.00831193608122
      0.00831349776265
      0.00831488155992
      0.00831602162902
      0.00831684850006
      0.00831729039957
      0.00831727465014
      0.00831672893639
      0.00831558217938
      0.00831376473732
      0.00831120764509
      0.00830784060465
      0.00830358843808
      0.00829836325009
      0.00829175383361
      0.00828379295302
      0.00827430521170
      0.00826300924819
      0.00824954178773
      0.00823343562176
      0.00821409611528
      0.00819078402334
      0.00816261779756
      0.00812861219610
      0.00808776780220
      0.00803921581588
      0.00798240591217
      0.00791730685371
      0.00784457612748
      0.00776565154959
      0.00768272721105
      0.00759859727179
      0.00751637941832
      0.00743915844583
      0.00736961234389
      0.00730969364879
      0.00726043371666
      0.00722191616246
      0.00719342554920
      0.00717372809413
      0.00716142408208
      0.00715550355363
      0.00715587008731
      0.00716197593129
      0.00718256397631
      0.00720983610755
      0.00724749275276
      0.00730293834354
      0.00738521832920
      0.00750378023761
      0.00766615774601
      0.00787425783118
      0.00811982545711
      0.00838110978023
      0.00862370479556
      0.00880770250939
      0.00890059172610
      0.00000000000000
      0.00000000000000
      0.00804313346830
      0.00802141792984
      0.00799700374776
      0.00797384412720
      0.00795582344014
      0.00794377821087
      0.00793645833474
      0.00793223008714
      0.00792965268192
      0.00792800348607
      0.00792689744347
      0.00792616154359
      0.00792572950298
      0.00792557853198
      0.00792569777530
      0.00792607491748
      0.00792669154782
      0.00792752210862
      0.00792853400156
      0.00792968788751
      0.00793093789625
      0.00793223174790
      0.00793351089259
      0.00793471079788
      0.00793576149588
      0.00793658845658
      0.00793711378989
      0.00793725770231
      0.00793694005813
      0.00793608183416
      0.00793460622666
      0.00793243918465
      0.00792950920803
      0.00792574636643
      0.00792108143908
      0.00791531442747
      0.00790816429291
      0.00789971022261
      0.00788971176333
      0.00787787355595
      0.00786380577721
      0.00784699160414
      0.00782675893683
      0.00780226713937
      0.00777252582109
      0.00773646310980
      0.00769305357204
      0.00764150111732
      0.00758145342650
      0.00751320740576
      0.00743785597281
      0.00735732948014
      0.00727430125048
      0.00719195313786
      0.00711362784039
      0.00704242232421
      0.00698079415118
      0.00693025776007
      0.00689123686555
      0.00686311505456
      0.00684447732682
      0.00683345686861
      0.00682797035758
      0.00682641918338
      0.00682910989346
      0.00683774573320
      0.00684686238882
      0.00685852548067
      0.00687601348264
      0.00690477720605
      0.00695211962266
      0.00702655733938
      0.00713602930115
      0.00728466863628
      0.00746829643614
      0.00767063217195
      0.00786338388196
      0.00801238614851
      0.00808917744005
      0.00000000000000
      0.00000000000000
      0.00766235861175
      0.00764294933293
      0.00762087151533
      0.00759925826594
      0.00758164138317
      0.00756908458442
      0.00756076368721
      0.00755524886867
      0.00755127255107
      0.00754825569151
      0.00754584047364
      0.00754387292414
      0.00754229695561
      0.00754109389074
      0.00754025309795
      0.00753976000870
      0.00753959234462
      0.00753971959549
      0.00754010346118
      0.00754069836996
      0.00754145183203
      0.00754230465758
      0.00754319116779
      0.00754403954937
      0.00754477248382
      0.00754530813451
      0.00754556150408
      0.00754544609127
      0.00754487569494
      0.00754376615728
      0.00754203683439
      0.00753961167150
      0.00753641997647
      0.00753239698378
      0.00752747934585
      0.00752128407235
      0.00751393495653
      0.00750528175079
      0.00749509527083
      0.00748306177342
      0.00746874853280
      0.00745156786170
      0.00743075096891
      0.00740534764183
      0.00737427036792
      0.00733639754193
      0.00729073866797
      0.00723664682423
      0.00717404478149
      0.00710361708720
      0.00702691663483
      0.00694634375741
      0.00686497788790
      0.00678627164521
      0.00671364820163
      0.00665006729275
      0.00659763549305
      0.00655733728213
      0.00652894637758
      0.00651116015654
      0.00650195372302
      0.00649908426658
      0.00649980536695
      0.00650401867825
      0.00650802179528
      0.00651117629053
      0.00651354392943
      0.00651624487001
      0.00652149756380
      0.00653295808601
      0.00655604877244
      0.00659795147599
      0.00666609480568
      0.00676589663516
      0.00689644813309
      0.00704645628891
      0.00719364125945
      0.00730978428983
      0.00737078068571
      0.00000000000000
      0.00000000000000
      0.00726874029312
      0.00725120402050
      0.00723109649727
      0.00721089455889
      0.00719376931268
      0.00718090105322
      0.00717174228504
      0.00716515483209
      0.00716007538662
      0.00715590752539
      0.00715235613663
      0.00714929771452
      0.00714669160527
      0.00714452678827
      0.00714279602841
      0.00714148563096
      0.00714057255033
      0.00714002435511
      0.00713979997190
      0.00713985040368
      0.00714011921810
      0.00714054285740
      0.00714105091965
      0.00714156658469
      0.00714200733990
      0.00714228610970
      0.00714231281533
      0.00714199629735
      0.00714124644371
      0.00713997630938
      0.00713810403443
      0.00713555454557
      0.00713226159544
      0.00712817203966
      0.00712312853661
      0.00711692945086
      0.00710966922007
      0.00710115782418
      0.00709114844280
      0.00707929125319
      0.00706509154009
      0.00704787388796
      0.00702676531069
      0.00700071520472
      0.00696856942845
      0.00692920787238
      0.00688173998678
      0.00682573403397
      0.00676143862600
      0.00668994525084
      0.00661324253732
      0.00653412853261
      0.00645597365836
      0.00638235785928
      0.00631663445799
      0.00626149387852
      0.00621859886541
      0.00618836428059
      0.00616992280300
      0.00616132694411
      0.00615999366408
      0.00616394981187
      0.00616991718494
      0.00617379852953
      0.00617606899376
      0.00617676267346
      0.00617608006398
      0.00617472634285
      0.00617392917580
      0.00617565139406
      0.00618355756219
      0.00620384601846
      0.00624225712451
      0.00630465649970