# vtk DataFile Version 3.0
Non-uniform Rectilinear - Rectilinear Grid
ASCII
DATASET RECTILINEAR_GRID
DIMENSIONS  21   1   1
X_COORDINATES  21 float
      0.00000000000000
      0.02631578947368
      0.07894736842105
      0.13157894736842
      0.18421052631579
      0.23684210526316
      0.28947368421053
      0.34210526315789
      0.39473684210526
      0.44736842105263
      0.50000000000000
      0.55263157894737
      0.60526315789474
      0.65789473684211
      0.71052631578947
      0.76315789473684
      0.81578947368421
      0.86842105263158
      0.92105263157895
      0.97368421052632
      1.00000000000000
Y_COORDINATES   1 float
      1.00000000000000
Z_COORDINATES   1 float
      1.00000000000000
POINT_DATA               21
SCALARS T float
LOOKUP_TABLE default
      0.00000000000000
      0.00000000001150
      0.00000000010086
      0.00000000053389
      0.00000000263245
      0.00000001280237
      0.00000006208736
      0.00000030093002
      0.00000145839827
      0.00000706766751
      0.00003425104918
      0.00016598589883
      0.00080439324702
      0.00389821347286
      0.01889134225927
      0.09155035099337
      0.44366708562645
      2.15007895346367
     10.41961338990146
     50.49504950494626
    100.00000000000000
