# vtk DataFile Version 3.0
Non-uniform Rectilinear - Rectilinear Grid
ASCII
DATASET RECTILINEAR_GRID
DIMENSIONS   6   6   1
X_COORDINATES   6 float
      0.00000000000000
      0.00001000000000
      0.13389304136907
      1.93628076771713
      2.07017380908621
      2.07018380908621
Y_COORDINATES   6 float
      0.00000000000000
      0.00001000000000
      0.24285297521849
      1.82732083386771
      2.07017380908621
      2.07018380908621
Z_COORDINATES   1 float
      1.00000000000000
CELL_DATA               25
SCALARS P float
LOOKUP_TABLE default
     -0.00000000256437
     -0.00000000256437
      0.00068656348071
      0.00129787869090
      0.00129787869090
     -0.00000000256437
     -0.00000000256437
      0.00068656348071
      0.00129787869090
      0.00129787869090
      0.00060076415266
      0.00060076415266
      0.00068040537897
      0.00060076415105
      0.00060076415105
      0.00129788125716
      0.00129788125716
      0.00068656605207
      0.00000000000000
      0.00000000000000
      0.00129788125716
      0.00129788125716
      0.00068656605207
      0.00000000000000
      0.00000000000000
SCALARS T float
LOOKUP_TABLE default
    300.00000000000000
    294.04973480160550
    293.99966057724669
    293.94868926715839
    288.00000000000000
    300.00000000000000
    294.04973480160550
    293.99966057724669
    293.94868926715839
    288.00000000000000
    300.00000000000000
    294.05068577330150
    294.00000003673040
    293.94931429964311
    288.00000000000000
    300.00000000000000
    294.05131080577735
    294.00033949621343
    293.95026527134985
    288.00000000000000
    300.00000000000000
    294.05131080577735
    294.00033949621343
    293.95026527134985
    288.00000000000000
SCALARS e float
LOOKUP_TABLE default
      0.13759615274795
      0.04265217486924
      0.03984608315757
      0.04276738450043
      0.13766527852666
      0.04265217486924
      0.04265217486924
      0.03984608315757
      0.04276738450043
      0.04276738450043
      0.04324935824060
      0.04324935824060
      0.03954284169308
      0.04324935827656
      0.04324935827656
      0.04276738447483
      0.04276738447483
      0.03984608315698
      0.04265217489179
      0.04265217489179
      0.13766527851130
      0.04276738447483
      0.03984608315698
      0.04265217489179
      0.13759615276148
SCALARS Tk float
LOOKUP_TABLE default
      0.00000000000000
      0.00000000000000
      0.00000000000000
      0.00000000000000
      0.00000000000000
      0.00000000000000
      0.00141777654875
      0.00136361184852
      0.00142064394768
      0.00000000000000
      0.00000000000000
      0.00145597108649
      0.00135630646568
      0.00145597108850
      0.00000000000000
      0.00000000000000
      0.00142064394627
      0.00136361184850
      0.00141777655004
      0.00000000000000
      0.00000000000000
      0.00000000000000
      0.00000000000000
      0.00000000000000
      0.00000000000000
SCALARS MuT float
LOOKUP_TABLE default
      0.00000000000000
      0.00000000000000
      0.00000000000000
      0.00000000000000
      0.00000000000000
      0.00000000000000
      0.03913727995612
      0.04029295888884
      0.03911078976726
      0.00000000000000
      0.00000000000000
      0.03963666576963
      0.04038443279269
      0.03963666579130
      0.00000000000000
      0.00000000000000
      0.03911078975186
      0.04029295888877
      0.03913727997116
      0.00000000000000
      0.00000000000000
      0.00000000000000
      0.00000000000000
      0.00000000000000
      0.00000000000000
SCALARS Str float
LOOKUP_TABLE default
      0.00000000000000
      0.00000000000000
      0.00000000000000
      0.00000000000000
      0.00000000000000
      0.00000000000000
     -0.09948147989364
     -0.20025284732099
     -0.10077136742735
      0.00000000000000
      0.00000000000000
     -0.20025284648956
     -0.40050569460903
     -0.20025284811947
      0.00000000000000
      0.00000000000000
     -0.10077136659592
     -0.20025284728804
     -0.09948148069212
      0.00000000000000
      0.00000000000000
      0.00000000000000
      0.00000000000000
      0.00000000000000
      0.00000000000000
VECTORS velocity float
      0.00000000000000      0.00000000000000      0.00000000000000
      0.00000000000000      0.00000000000000      0.00000000000000
      0.00000000000000      0.00000000000000      0.00000000000000
      0.00000000000000      0.00000000000000      0.00000000000000
      0.00000000000000      0.00000000000000      0.00000000000000
      0.00000000000000      0.00000000000000      0.00000000000000
     -0.00069583260202      0.00126208961965      0.00000000000000
     -0.00140068744416      0.00000121565289      0.00000000000000
     -0.00070485484214     -0.00127845400897      0.00000000000000
      0.00000000000000      0.00000000000000      0.00000000000000
      0.00000000000000      0.00000000000000      0.00000000000000
     -0.00000138284689      0.00254054361806      0.00000000000000
      0.00000000000004      0.00000000000154      0.00000000000000
      0.00000138284692     -0.00254054363875      0.00000000000000
      0.00000000000000      0.00000000000000      0.00000000000000
      0.00000000000000      0.00000000000000      0.00000000000000
      0.00070485483632      0.00127845399841      0.00000000000000
      0.00140068744393     -0.00000121565136      0.00000000000000
      0.00069583260760     -0.00126208962978      0.00000000000000
      0.00000000000000      0.00000000000000      0.00000000000000
      0.00000000000000      0.00000000000000      0.00000000000000
      0.00000000000000      0.00000000000000      0.00000000000000
      0.00000000000000      0.00000000000000      0.00000000000000
      0.00000000000000      0.00000000000000      0.00000000000000
      0.00000000000000      0.00000000000000      0.00000000000000
