# vtk DataFile Version 3.0
Non-uniform Rectilinear - Rectilinear Grid
ASCII
DATASET RECTILINEAR_GRID
DIMENSIONS  51   1   1
X_COORDINATES  51 float
      0.00000000000000
      0.01020408163265
      0.03061224489796
      0.05102040816327
      0.07142857142857
      0.09183673469388
      0.11224489795918
      0.13265306122449
      0.15306122448980
      0.17346938775510
      0.19387755102041
      0.21428571428571
      0.23469387755102
      0.25510204081633
      0.27551020408163
      0.29591836734694
      0.31632653061224
      0.33673469387755
      0.35714285714286
      0.37755102040816
      0.39795918367347
      0.41836734693878
      0.43877551020408
      0.45918367346939
      0.47959183673469
      0.50000000000000
      0.52040816326531
      0.54081632653061
      0.56122448979592
      0.58163265306122
      0.60204081632653
      0.62244897959184
      0.64285714285714
      0.66326530612245
      0.68367346938776
      0.70408163265306
      0.72448979591837
      0.74489795918367
      0.76530612244898
      0.78571428571429
      0.80612244897959
      0.82653061224490
      0.84693877551020
      0.86734693877551
      0.88775510204082
      0.90816326530612
      0.92857142857143
      0.94897959183673
      0.96938775510204
      0.98979591836735
      1.00000000000000
Y_COORDINATES   1 float
      1.00000000000000
Z_COORDINATES   1 float
      1.00000000000000
POINT_DATA               51
SCALARS T float
LOOKUP_TABLE default
      0.00000000000000
      2.26731427336525
      6.80194282009587
     11.33657136682649
     15.87119991355751
     20.40582846028851
     24.94045700702023
     29.47508555375195
     34.00971410048467
     38.54434264721738
     43.07897119395140
     47.61359974068542
     52.14822828742102
     56.68285683415662
     61.21748538089404
     65.75211392763147
     70.28674247437098
     74.82137102111049
     79.35599956785235
     83.89062811459418
     88.42525666133852
     92.95988520808287
     97.49451375482991
     99.98872367387459
     99.98908860350664
     99.98945353313871
     99.98981846277357
     99.99018339240843
     99.99054832204600
     99.99091325168359
     99.99127818132384
     99.99164311096409
     99.99200804060689
     99.99237297024970
     99.99273789989495
     99.99310282954019
     99.99346775918774
     99.99383268883528
     99.99419761848492
     99.99456254813455
     99.99492747778612
     99.99529240743769
     99.99565733709093
     99.99602226674419
     99.99638719639891
     99.99675212605364
     99.99711705570957
     99.99748198536550
     99.99784691502239
     99.99821184467928
    100.00000000000000
