# vtk DataFile Version 3.0
Non-uniform Rectilinear - Rectilinear Grid
ASCII
DATASET RECTILINEAR_GRID
DIMENSIONS  62  62   1
X_COORDINATES  62 float
      0.00000000000000
      0.00001000000000
      0.00021631715778
      0.00049995285077
      0.00087182884933
      0.00135934904797
      0.00199839334876
      0.00283591446808
      0.00393331249811
      0.00537080731556
      0.00725308185429
      0.00971652782977
      0.01293848419702
      0.01714890557423
      0.02264491031739
      0.02980859527425
      0.03912829807967
      0.05122302944459
      0.06686892592147
      0.08702507122665
      0.11285365599034
      0.14572601491652
      0.18720171683398
      0.23896342581102
      0.30268785223636
      0.37983671272562
      0.47136649843910
      0.57738596108325
      0.69683253219691
      0.82727710676775
      0.96497181525035
      1.10520199383586
      1.24289670231845
      1.37334127688929
      1.49278784800296
      1.59880731064710
      1.69033709636059
      1.76748595684984
      1.83121038327519
      1.88297209225223
      1.92444779416968
      1.95732015309586
      1.98314873785956
      2.00330488316473
      2.01895077964162
      2.03104551100654
      2.04036521381196
      2.04752889876881
      2.05302490351198
      2.05723532488919
      2.06045728125643
      2.06292072723191
      2.06480300177064
      2.06624049658809
      2.06733789461812
      2.06817541573745
      2.06881446003824
      2.06930198023687
      2.06967385623544
      2.06995749192842
      2.07017380908621
      2.07018380908621
Y_COORDINATES  62 float
      0.00000000000000
      0.00001000000000
      0.00115676072179
      0.00257267156213
      0.00430530716531
      0.00642479263745
      0.00901641949764
      0.01218374698094
      0.01605224820931
      0.02077355119813
      0.02653030311159
      0.03354164627117
      0.04206922751841
      0.05242355742875
      0.06497037897391
      0.08013648172535
      0.09841409458208
      0.12036260218248
      0.14660587098853
      0.17782298851023
      0.21472981704852
      0.25804862267856
      0.30846342878047
      0.36655999135523
      0.43275170442429
      0.50719641929004
      0.58971375131264
      0.67971692479817
      0.77617585546502
      0.87762701385127
      0.98223933489534
      1.08793447419086
      1.19254679523493
      1.29399795362118
      1.39045688428803
      1.48046005777357
      1.56297738979616
      1.63742210466192
      1.70361381773098
      1.76171038030574
      1.81212518640765
      1.85544399203768
      1.89235082057598
      1.92356793809768
      1.94981120690372
      1.97175971450412
      1.99003732736086
      2.00520343011229
      2.01775025165745
      2.02810458156780
      2.03663216281503
      2.04364350597462
      2.04940025788807
      2.05412156087689
      2.05799006210527
      2.06115738958857
      2.06374901644876
      2.06586850192089
      2.06760113752407
      2.06901704836441
      2.07017380908621
      2.07018380908621
Z_COORDINATES   1 float
      1.00000000000000
CELL_DATA             3721
SCALARS P float
LOOKUP_TABLE default
      0.00000001861639
      0.00000001861639
     -0.00001221506218
     -0.00002018416762
     -0.00001758166456
      0.00000474437447
      0.00005704063561
      0.00014555788661
      0.00026614805373
      0.00040265082789
      0.00053389342642
      0.00064439498525
      0.00072722103872
      0.00078374269211
      0.00082017211738
      0.00084370919408
      0.00086008002453
      0.00087293263457
      0.00088437255621
      0.00089567825663
      0.00090778327935
      0.00092154081775
      0.00093787473812
      0.00095778659684
      0.00098240601701
      0.00101291957584
      0.00105054259403
      0.00109641475529
      0.00115142845138
      0.00121598471449
      0.00128992419577
      0.00137243154455
      0.00146221840449
      0.00155759181293
      0.00165667823382
      0.00175707950123
      0.00185393839892
      0.00193367342134
      0.00196678100534
      0.00191260441695
      0.00175383590846
      0.00155822348406
      0.00147861599261
      0.00165943674416
      0.00214209034272
      0.00284898020991
      0.00359859035005
      0.00420493265342
      0.00457295371742
      0.00473041687598
      0.00477276228427
      0.00477792603759
      0.00477700835260
      0.00477648198279
      0.00477656498966
      0.00477676707010
      0.00477684738299
      0.00477677633197
      0.00477660464759
      0.00477639027369
      0.00477639027369
      0.00000001861639
      0.00000001861639
     -0.00001221506218
     -0.00002018416762
     -0.00001758166456
      0.00000474437447
      0.00005704063561
      0.00014555788661
      0.00026614805373
      0.00040265082789
      0.00053389342642
      0.00064439498525
      0.00072722103872
      0.00078374269211
      0.00082017211738
      0.00084370919408
      0.00086008002453
      0.00087293263457
      0.00088437255621
      0.00089567825663
      0.00090778327935
      0.00092154081775
      0.00093787473812
      0.00095778659684
      0.00098240601701
      0.00101291957584
      0.00105054259403
      0.00109641475529
      0.00115142845138
      0.00121598471449
      0.00128992419577
      0.00137243154455
      0.00146221840449
      0.00155759181293
      0.00165667823382
      0.00175707950123
      0.00185393839892
      0.00193367342134
      0.00196678100534
      0.00191260441695
      0.00175383590846
      0.00155822348406
      0.00147861599261
      0.00165943674416
      0.00214209034272
      0.00284898020991
      0.00359859035005
      0.00420493265342
      0.00457295371742
      0.00473041687598
      0.00477276228427
      0.00477792603759
      0.00477700835260
      0.00477648198279
      0.00477656498966
      0.00477676707010
      0.00477684738299
      0.00477677633197
      0.00477660464759
      0.00477639027369
      0.00477639027369
      0.00017168937323
      0.00017168937323
      0.00015424227250
      0.00013769309273
      0.00012478579736
      0.00011938432277
      0.00012711506913
      0.00015548650282
      0.00021050072783
      0.00029074577876
      0.00038344334308
      0.00047259024174
      0.00054610981261
      0.00059968747875
      0.00063570510029
      0.00065948640599
      0.00067609346202
      0.00068904202432
      0.00070046021858
      0.00071166335793
      0.00072360483424
      0.00073714172034
      0.00075319105739
      0.00077274013476
      0.00079690120045
      0.00082684217801
      0.00086375827411
      0.00090876917481
      0.00096274915038
      0.00102608478403
      0.00109860732783
      0.00117949646027
      0.00126746127035
      0.00136080330660
      0.00145763412954
      0.00155552066700
      0.00164953798989
      0.00172599759534
      0.00175530027468
      0.00169688568161
      0.00153389213437
      0.00133416457833
      0.00124982630424
      0.00142428892200
      0.00189810596484
      0.00259332942233
      0.00332808882406
      0.00391995378578
      0.00427834438134
      0.00443393839219
      0.00447951778743
      0.00448753415672
      0.00448738142590
      0.00448630358807
      0.00448540545057
      0.00448467213974
      0.00448402519446
      0.00448344368782
      0.00448293284594
      0.00448249877783
      0.00448249877783
      0.00020221899523
      0.00020221899523
      0.00018728562056
      0.00017117149250
      0.00015452443971
      0.00013788521250
      0.00012268185027
      0.00011388183829
      0.00012073298767
      0.00015095335363
      0.00020383459002
      0.00026739731406
      0.00032782727251
      0.00037616708623
      0.00041069310293
      0.00043430712409
      0.00045101708136
      0.00046401542852
      0.00047538292954
      0.00048645157662
      0.00049818917373
      0.00051145408657
      0.00052715376439
      0.00054625746498
      0.00056985594343
      0.00059909400112
      0.00063514192401
      0.00067909449066
      0.00073180311259
      0.00079363554199
      0.00086440960485
      0.00094329559672
      0.00102899391205
      0.00111979021314
      0.00121376380167
      0.00130842071652
      0.00139873846026
      0.00147090302701
      0.00149522312735
      0.00143116970459
      0.00126204600713
      0.00105525147133
      0.00096163178433
      0.00112346610957
      0.00158084237283
      0.00225670545770
      0.00297104020465
      0.00354972759711
      0.00390499670870
      0.00406588091832
      0.00411846123372
      0.00413027356540
      0.00413113753199
      0.00412985771626
      0.00412840878738
      0.00412712827943
      0.00412604464237
      0.00412514400932
      0.00412440805463
      0.00412381736734
      0.00412381736734
      0.00008892307921
      0.00008892307921
      0.00007812432353
      0.00006552422649
      0.00005075393402
      0.00003275028090
      0.00001034848928
     -0.00001475332161
     -0.00003474603585
     -0.00003830614504
     -0.00001913876501
      0.00001864844726
      0.00006362506422
      0.00010459732016
      0.00013636743948
      0.00015922275315
      0.00017579893200
      0.00018875262033
      0.00020001780276
      0.00021090641785
      0.00022238813579
      0.00023531704671
      0.00025058669357
      0.00026914334061
      0.00029205102544
      0.00032042578590
      0.00035540694247
      0.00039805812304
      0.00044920170632
      0.00050918060615
      0.00057779320409
      0.00065419313569
      0.00073706142074
      0.00082464991439
      0.00091497650002
      0.00100544420435
      0.00109088789573
      0.00115735206976
      0.00117507642119
      0.00110347965649
      0.00092555072606
      0.00070735385319
      0.00059770937928
      0.00073788416454
      0.00116825115847
      0.00181385889501
      0.00250483472704
      0.00307267556937
      0.00343206452426
      0.00360650640424
      0.00367146058539
      0.00368961844569
      0.00369263984602
      0.00369178932158
      0.00369021286013
      0.00368868157816
      0.00368736277810
      0.00368627516111
      0.00368539973146
      0.00368470897330
      0.00368470897330
     -0.00015549082944
     -0.00015549082944
     -0.00016284560838
     -0.00017191440002
     -0.00018335210212
     -0.00019860594826
     -0.00021981245088
     -0.00024764036971
     -0.00027743802343
     -0.00029882574080
     -0.00030221555750
     -0.00028633246597
     -0.00025733219513
     -0.00022547790735
     -0.00019787612859
     -0.00017658615272
     -0.00016053010376
     -0.00014779631776
     -0.00013672535647
     -0.00012608490929
     -0.00011492796614
     -0.00010241576485
     -0.00008767571171
     -0.00006979124153
     -0.00004773183408
     -0.00002041738373
      0.00001325286160
      0.00005430345575
      0.00010351973530
      0.00016121163791
      0.00022714941144
      0.00030045884752
      0.00037978472809
      0.00046331703833
      0.00054896741024
      0.00063397265485
      0.00071296187961
      0.00077183939924
      0.00078085790268
      0.00069942994000
      0.00050959777679
      0.00027484669120
      0.00014139529564
      0.00025063264419
      0.00064465480312
      0.00125260997718
      0.00191659321031
      0.00247184085528
      0.00283928667008
      0.00303375047724
      0.00311646712132
      0.00314445656694
      0.00315150311223
      0.00315200193413
      0.00315075785030
      0.00314920380717
      0.00314775204947
      0.00314651126984
      0.00314549516516
      0.00314468728564
      0.00314468728564
     -0.00051726252416
     -0.00051726252416
     -0.00052230551746
     -0.00052874989070
     -0.00053720147755
     -0.00054892185681
     -0.00056601841127
     -0.00059027495662
     -0.00061990842837
     -0.00064743989430
     -0.00066323249449
     -0.00066293979330
     -0.00064847075236
     -0.00062678856553
     -0.00060482874942
     -0.00058616149089
     -0.00057122050629
     -0.00055900960675
     -0.00054829366144
     -0.00053800762976
     -0.00052726999457
     -0.00051527779757
     -0.00050119120632
     -0.00048413267094
     -0.00046311438769
     -0.00043710135207
     -0.00040504091842
     -0.00036595759145
     -0.00031911333370
     -0.00026424194920
     -0.00020161328429
     -0.00013214531539
     -0.00005725363332
      0.00002115035789
      0.00010081056658
      0.00017871425222
      0.00024921333431
      0.00029812885048
      0.00029609198200
      0.00020293256463
     -0.00000091250769
     -0.00025613902891
     -0.00041882673750
     -0.00034560248203
      0.00000561157601
      0.00056974422049
      0.00119461466732
      0.00172909073514
      0.00210263409413
      0.00231984970580
      0.00242517542671
      0.00246747061086
      0.00248137684089
      0.00248463627572
      0.00248432170925
      0.00248293617250
      0.00248135162556
      0.00247987502924
      0.00247860699806
      0.00247756871695
      0.00247756871695
     -0.00099130091324
     -0.00099130091324
     -0.00099492113355
     -0.00099963421249
     -0.00100591046867
     -0.00101469212347
     -0.00102767681665
     -0.00104686296832
     -0.00107230418075
     -0.00109948411331
     -0.00112048946174
     -0.00112926959072
     -0.00112661700760
     -0.00111508621914
     -0.00110000482302
     -0.00108520925201
     -0.00107222829454
     -0.00106102543554
     -0.00105093455496
     -0.00104117183211
     -0.00103098787395
     -0.00101965043816
     -0.00100637212492
     -0.00099032764827
     -0.00097058495738
     -0.00094616589179
     -0.00091607774939
     -0.00087940641124
     -0.00083547381928
     -0.00078407096042
     -0.00072552269148
     -0.00066081043364
     -0.00059143881184
     -0.00051946481189
     -0.00044737404839
     -0.00037849515474
     -0.00031875021215
     -0.00028211437153
     -0.00029664268749
     -0.00040122802500
     -0.00061828845603
     -0.00089455993241
     -0.00108734348008
     -0.00105244670395
     -0.00075267148306
     -0.00024363928230
      0.00032287670727
      0.00082154416737
      0.00119338668584
      0.00143268350604
      0.00156460329069
      0.00162613708617
      0.00165048766182
      0.00165846163199
      0.00165995597519
      0.00165905641457
      0.00165739242730
      0.00165561981863
      0.00165399883314
      0.00165262242409
      0.00165262242409
     -0.00158424348177
     -0.00158424348177
     -0.00158699569429
     -0.00159060269379
     -0.00159541325337
     -0.00160209830612
     -0.00161191947660
     -0.00162666225384
     -0.00164727706475
     -0.00167149535594
     -0.00169359072939
     -0.00170798389352
     -0.00171291021798
     -0.00171013048684
     -0.00170245530149
     -0.00169270936155
     -0.00168272906746
     -0.00167323116834
     -0.00166418700362
     -0.00165521163256
     -0.00164577631764
     -0.00163527248330
     -0.00162299620242
     -0.00160819347194
     -0.00159000711473
     -0.00156753064473
     -0.00153984556658
     -0.00150611354932
     -0.00146573085700
     -0.00141856012969
     -0.00136499548540
     -0.00130609768276
     -0.00124347708101
     -0.00117934892946
     -0.00111641120052
     -0.00105819849810
     -0.00101058955524
     -0.00098676062858
     -0.00101271044334
     -0.00112572742213
     -0.00135278291968
     -0.00164770535515
     -0.00186853572753
     -0.00187469540489
     -0.00163570632968
     -0.00120180965648
     -0.00071519376446
     -0.00027010312696
      0.00008770090042
      0.00034361431698
      0.00050283977392
      0.00058705865367
      0.00062514094576
      0.00063999791901
      0.00064449036896
      0.00064466242186
      0.00064318061755
      0.00064121017163
      0.00063925576140
      0.00063752580324
      0.00063752580324
     -0.00231395924098
     -0.00231395924098
     -0.00231615023495
     -0.00231902569332
     -0.00232284925756
     -0.00232810677452
     -0.00233572629388
     -0.00234717625465
     -0.00236371558274
     -0.00238449482493
     -0.00240560071024
     -0.00242223323346
     -0.00243212230503
     -0.00243641526423
     -0.00243575455336
     -0.00243173870935
     -0.00242576243015
     -0.00241881735576
     -0.00241140568644
     -0.00240360539634
     -0.00239519801834
     -0.00238576558063
     -0.00237473118061
     -0.00236143912491
     -0.00234513477692
     -0.00232500117066
     -0.00230021000756
     -0.00227001350894
     -0.00223389488014
     -0.00219179757058
     -0.00214418597887
     -0.00209218761779
     -0.00203747378293
     -0.00198230629343
     -0.00192935973121
     -0.00188201911828
     -0.00184585302752
     -0.00183330300123
     -0.00186822841307
     -0.00198576768992
     -0.00221831447496
     -0.00252717271148
     -0.00277248413961
     -0.00282262406935
     -0.00265107937812
     -0.00231232627474
     -0.00192397044899
     -0.00155053623590
     -0.00122407686356
     -0.00096397053294
     -0.00078257136819
     -0.00067575056508
     -0.00062226020498
     -0.00059881100500
     -0.00059008424889
     -0.00058805402265
     -0.00058887544624
     -0.00059075532805
     -0.00059286754013
     -0.00059484182115
     -0.00059484182115
     -0.00320753216171
     -0.00320753216171
     -0.00320932343703
     -0.00321167645578
     -0.00321479982058
     -0.00321906306906
     -0.00322516964072
     -0.00323430775230
     -0.00324776788081
     -0.00326552402275
     -0.00328503248648
     -0.00330249363738
     -0.00331564666889
     -0.00332412626052
     -0.00332894119387
     -0.00333041609997
     -0.00332900415254
     -0.00332538995768
     -0.00332028570043
     -0.00331416416727
     -0.00330715920230
     -0.00329910338608
     -0.00328959558069
     -0.00327811576768
     -0.00326404741205
     -0.00324668216900
     -0.00322529698461
     -0.00319924481855
     -0.00316809819694
     -0.00313187073056
     -0.00309106005884
     -0.00304678217395
     -0.00300062478867
     -0.00295469174170
     -0.00291145701763
     -0.00287419612597
     -0.00284840046669
     -0.00284563784061
     -0.00288661483852
     -0.00300360490001
     -0.00323523306936
     -0.00355042990951
     -0.00381381594817
     -0.00390737883398
     -0.00380431833936
     -0.00357412190134
     -0.00329516317341
     -0.00300804852722
     -0.00273211137012
     -0.00248586809897
     -0.00229349096479
     -0.00216852723198
     -0.00210050483591
     -0.00206795850763
     -0.00205417807096
     -0.00204954997037
     -0.00204913555762
     -0.00205049717718
     -0.00205245194273
     -0.00205443670342
     -0.00205443670342
     -0.00429898623058
     -0.00429898623058
     -0.00430047167954
     -0.00430242643015
     -0.00430502225975
     -0.00430855370702
     -0.00431357397040
     -0.00432105233884
     -0.00433220305981
     -0.00434745474931
     -0.00436521165730
     -0.00438241006129
     -0.00439681164305
     -0.00440814342312
     -0.00441681423124
     -0.00442264692497
     -0.00442552046594
     -0.00442556826757
     -0.00442331655289
     -0.00441939656772
     -0.00441422571206
     -0.00440789983728
     -0.00440021976610
     -0.00439085790017
     -0.00437936219608
     -0.00436515051359
     -0.00434761463292
     -0.00432620753219
     -0.00430057571601
     -0.00427076754042
     -0.00423724826172
     -0.00420103768953
     -0.00416356439455
     -0.00412678049413
     -0.00409307243567
     -0.00406570413130
     -0.00404983044216
     -0.00405521209198
     -0.00409824360484
     -0.00420840387430
     -0.00443068095770
     -0.00474107126947
     -0.00501154173946
     -0.00513900292430
     -0.00510803121848
     -0.00498506117407
     -0.00481498535107
     -0.00461950424379
     -0.00440770267407
     -0.00419281088079
     -0.00400332882450
     -0.00386774067685
     -0.00378841977944
     -0.00374774885968
     -0.00372885888692
     -0.00372121505305
     -0.00371907979611
     -0.00371947807410
     -0.00372089915883
     -0.00372258733630
     -0.00372258733630
     -0.00562862802120
     -0.00562862802120
     -0.00562986482182
     -0.00563149835711
     -0.00563367526563
     -0.00563664101655
     -0.00564084857643
     -0.00564710600594
     -0.00565652487851
     -0.00566978024800
     -0.00568592618457
     -0.00570244180147
     -0.00571713607559
     -0.00572964089693
     -0.00574001067380
     -0.00574827563954
     -0.00575415124386
     -0.00575737156421
     -0.00575805087552
     -0.00575665426723
     -0.00575367677990
     -0.00574939820187
     -0.00574380709410
     -0.00573682143471
     -0.00572814955117
     -0.00571735059368
     -0.00570393849216
     -0.00568746492215
     -0.00566764161430
     -0.00564454045589
     -0.00561858256910
     -0.00559070451256
     -0.00556221263100
     -0.00553495377258
     -0.00551119424733
     -0.00549396077545
     -0.00548749876897
     -0.00549883556575
     -0.00553958648909
     -0.00563673222899
     -0.00583976239013
     -0.00613011317627
     -0.00639175187451
     -0.00654090377076
     -0.00657798226494
     -0.00655006696540
     -0.00647581754505
     -0.00636387925885
     -0.00621685866903
     -0.00604179684469
     -0.00586553660566
     -0.00572647262279
     -0.00563980293086
     -0.00559286864471
     -0.00556950115134
     -0.00555886550484
     -0.00555478290437
     -0.00555391637746
     -0.00555450452548
     -0.00555562900684
     -0.00555562900684
     -0.00724140902949
     -0.00724140902949
     -0.00724243686378
     -0.00724380232007
     -0.00724563393544
     -0.00724814337686
     -0.00725171414748
     -0.00725703489785
     -0.00726511584457
     -0.00727676089798
     -0.00729146416620
     -0.00730704801532
     -0.00732113449358
     -0.00733306868043
     -0.00734341103363
     -0.00735207965402
     -0.00735912198682
     -0.00736417292206
     -0.00736715641157
     -0.00736815184533
     -0.00736746552313
     -0.00736537781211
     -0.00736207173653
     -0.00735763918146
     -0.00735193758023
     -0.00734468504011
     -0.00733553727022
     -0.00732416529157
     -0.00731037046209
     -0.00729427890223
     -0.00727629086731
     -0.00725728105604
     -0.00723841495685
     -0.00722135578939
     -0.00720806908241
     -0.00720103322415
     -0.00720313956587
     -0.00721830976257
     -0.00725368024715
     -0.00733342571846
     -0.00750709024688
     -0.00775873125390
     -0.00799273191573
     -0.00815152046151
     -0.00824438004020
     -0.00829073414514
     -0.00828955293156
     -0.00824139691567
     -0.00814610158269
     -0.00800663181009
     -0.00784575215868
     -0.00770674619791
     -0.00761540747060
     -0.00756391089233
     -0.00753695375863
     -0.00752369761572
     -0.00751776091645
     -0.00751559072264
     -0.00751525386887
     -0.00751570902363
     -0.00751570902363
     -0.00918513848923
     -0.00918513848923
     -0.00918599013588
     -0.00918713021244
     -0.00918867323697
     -0.00919080569588
     -0.00919385957749
     -0.00919843087537
     -0.00920543509393
     -0.00921573743303
     -0.00922914066885
     -0.00924368830734
     -0.00925667850040
     -0.00926688701449
     -0.00927522918435
     -0.00928250156372
     -0.00928877211315
     -0.00929415515248
     -0.00929833124934
     -0.00930108648565
     -0.00930241458627
     -0.00930248864806
     -0.00930157907020
     -0.00929979630466
     -0.00929714702469
     -0.00929352391042
     -0.00928875164781
     -0.00928265281528
     -0.00927515192694
     -0.00926645783082
     -0.00925694260558
     -0.00924738676692
     -0.00923872178527
     -0.00923228044269
     -0.00922954094323
     -0.00923222326058
     -0.00924185205552
     -0.00925969529289
     -0.00928915950768
     -0.00935044662907
     -0.00948733974255
     -0.00968226160683
     -0.00987238160917
     -0.01003125714415
     -0.01016013317169
     -0.01025463700828
     -0.01029939237154
     -0.01029045392802
     -0.01022717680662
     -0.01011100648980
     -0.00996095440501
     -0.00982185485994
     -0.00972678047800
     -0.00967175880659
     -0.00964201912510
     -0.00962668988843
     -0.00961925000557
     -0.00961599724185
     -0.00961487539143
     -0.00961475179250
     -0.00961475179250
     -0.01150935046128
     -0.01150935046128
     -0.01151005650825
     -0.01151101002412
     -0.01151231403715
     -0.01151413504430
     -0.01151676457969
     -0.01152072322048
     -0.01152683699711
     -0.01153598839580
     -0.01154820951472
     -0.01156172000384
     -0.01157347223629
     -0.01158154399808
     -0.01158684943807
     -0.01159123681272
     -0.01159547611455
     -0.01159972598899
     -0.01160381708527
     -0.01160741308127
     -0.01161026204580
     -0.01161232740273
     -0.01161371119411
     -0.01161453410704
     -0.01161491634451
     -0.01161491776585
     -0.01161454221777
     -0.01161377905783
     -0.01161268743774
     -0.01161155850706
     -0.01161068143332
     -0.01161066605746
     -0.01161209226813
     -0.01161579689691
     -0.01162269081111
     -0.01163371263307
     -0.01164961721448
     -0.01167027486022
     -0.01169609874779
     -0.01174183700863
     -0.01184210610716
     -0.01197210466011
     -0.01211236946720
     -0.01226294667817
     -0.01240530210140
     -0.01252111200878
     -0.01258605426170
     -0.01259419732679
     -0.01254503972214
     -0.01243956541258
     -0.01229417231054
     -0.01215351055578
     -0.01205486273137
     -0.01199692435344
     -0.01196506859850
     -0.01194824526474
     -0.01193976241878
     -0.01193578048712
     -0.01193414240132
     -0.01193364501776
     -0.01193364501776
     -0.01426569162351
     -0.01426569162351
     -0.01426627608084
     -0.01426707393285
     -0.01426817921108
     -0.01426974355208
     -0.01427202886620
     -0.01427549821110
     -0.01428090014743
     -0.01428910810488
     -0.01430032486621
     -0.01431291995455
     -0.01432351979255
     -0.01432957317212
     -0.01433177826099
     -0.01433277017575
     -0.01433419701600
     -0.01433641589431
     -0.01433934791196
     -0.01434273518380
     -0.01434623169200
     -0.01434959775375
     -0.01435276745647
     -0.01435581335942
     -0.01435889880318
     -0.01436220036971
     -0.01436586982856
     -0.01437003943495
     -0.01437487603273
     -0.01438071819920
     -0.01438767825578
     -0.01439606891033
     -0.01440604713295
     -0.01441775241938
     -0.01443178185962
     -0.01444864292551
     -0.01446890019045
     -0.01449236876785
     -0.01451810490274
     -0.01455474227939
     -0.01462647897476
     -0.01470875755078
     -0.01480509985753
     -0.01493835961537
     -0.01507758698544
     -0.01519321641870
     -0.01525868020014
     -0.01526821010952
     -0.01522115263291
     -0.01511772244001
     -0.01497237483927
     -0.01482879015089
     -0.01472647873845
     -0.01466592376096
     -0.01463239293130
     -0.01461451948180
     -0.01460538193799
     -0.01460098994583
     -0.01459909070518
     -0.01459842123861
     -0.01459842123861
     -0.01750395988665
     -0.01750395988665
     -0.01750443839272
     -0.01750510124501
     -0.01750603568745
     -0.01750738310360
     -0.01750938562198
     -0.01751246614589
     -0.01751731227000
     -0.01752477476775
     -0.01753517534505
     -0.01754699750887
     -0.01755656733526
     -0.01756088759889
     -0.01756058441333
     -0.01755866875948
     -0.01755747513046
     -0.01755760066918
     -0.01755882070629
     -0.01756092971170
     -0.01756375418561
     -0.01756712333597
     -0.01757092803423
     -0.01757517696424
     -0.01757999886638
     -0.01758559161212
     -0.01759216775635
     -0.01759992282551
     -0.01760904475163
     -0.01761981658665
     -0.01763209877891
     -0.01764562868334
     -0.01766038200490
     -0.01767621438372
     -0.01769341750249
     -0.01771232808649
     -0.01773362777075
     -0.01775793638995
     -0.01778438698291
     -0.01782177675691
     -0.01788632924881
     -0.01794310565703
     -0.01801399227559
     -0.01812849707685
     -0.01826018680803
     -0.01836504922608
     -0.01842083814918
     -0.01842385447977
     -0.01837306866323
     -0.01826741960626
     -0.01811951339472
     -0.01797168704770
     -0.01786504366144
     -0.01780162839528
     -0.01776644918838
     -0.01774767139041
     -0.01773805669596
     -0.01773342484082
     -0.01773141309686
     -0.01773069567313
     -0.01773069567313
     -0.02126106195824
     -0.02126106195824
     -0.02126144197248
     -0.02126198012583
     -0.02126275836567
     -0.02126391103757
     -0.02126566761048
     -0.02126842433741
     -0.02127282342084
     -0.02127968717349
     -0.02128941011951
     -0.02130054305150
     -0.02130913936335
     -0.02131199527116
     -0.02131003255286
     -0.02130653096729
     -0.02130391578087
     -0.02130270679256
     -0.02130237104953
     -0.02130265106815
     -0.02130363044012
     -0.02130542903048
     -0.02130811823417
     -0.02131175348212
     -0.02131641756402
     -0.02132223846979
     -0.02132937243520
     -0.02133795676438
     -0.02134803780790
     -0.02135947106075
     -0.02137220764927
     -0.02138580844141
     -0.02140015132752
     -0.02141512841659
     -0.02143064370020
     -0.02144707930911
     -0.02146554480776
     -0.02148719811266
     -0.02151431611258
     -0.02156505722742
     -0.02163435324056
     -0.02168431038461
     -0.02175130795149
     -0.02186292177140
     -0.02199021750155
     -0.02208400039148
     -0.02212904303110
     -0.02212442376565
     -0.02206891657620
     -0.02196012302899
     -0.02180864056576
     -0.02165517312754
     -0.02154280453075
     -0.02147565844749
     -0.02143839455208
     -0.02141852412031
     -0.02140837035293
     -0.02140349661395
     -0.02140139581472
     -0.02140066192132
     -0.02140066192132
     -0.02553880394675
     -0.02553880394675
     -0.02553909154919
     -0.02553951239607
     -0.02554014302775
     -0.02554111056719
     -0.02554263206217
     -0.02554507876295
     -0.02554904910183