# vtk DataFile Version 3.0
Uniform Rectilinear - Rectilinear Grid
ASCII
DATASET RECTILINEAR_GRID
DIMENSIONS 101 101   1
X_COORDINATES 101 float
      0.00000000000000
      0.01000000000000
      0.02000000000000
      0.03000000000000
      0.04000000000000
      0.05000000000000
      0.06000000000000
      0.07000000000000
      0.08000000000000
      0.09000000000000
      0.10000000000000
      0.11000000000000
      0.12000000000000
      0.13000000000000
      0.14000000000000
      0.15000000000000
      0.16000000000000
      0.17000000000000
      0.18000000000000
      0.19000000000000
      0.20000000000000
      0.21000000000000
      0.22000000000000
      0.23000000000000
      0.24000000000000
      0.25000000000000
      0.26000000000000
      0.27000000000000
      0.28000000000000
      0.29000000000000
      0.30000000000000
      0.31000000000000
      0.32000000000000
      0.33000000000000
      0.34000000000000
      0.35000000000000
      0.36000000000000
      0.37000000000000
      0.38000000000000
      0.39000000000000
      0.40000000000000
      0.41000000000000
      0.42000000000000
      0.43000000000000
      0.44000000000000
      0.45000000000000
      0.46000000000000
      0.47000000000000
      0.48000000000000
      0.49000000000000
      0.50000000000000
      0.51000000000000
      0.52000000000000
      0.53000000000000
      0.54000000000000
      0.55000000000000
      0.56000000000000
      0.57000000000000
      0.58000000000000
      0.59000000000000
      0.60000000000000
      0.61000000000000
      0.62000000000000
      0.63000000000000
      0.64000000000000
      0.65000000000000
      0.66000000000000
      0.67000000000000
      0.68000000000000
      0.69000000000000
      0.70000000000000
      0.71000000000000
      0.72000000000000
      0.73000000000000
      0.74000000000000
      0.75000000000000
      0.76000000000000
      0.77000000000000
      0.78000000000000
      0.79000000000000
      0.80000000000000
      0.81000000000000
      0.82000000000000
      0.83000000000000
      0.84000000000000
      0.85000000000000
      0.86000000000000
      0.87000000000000
      0.88000000000000
      0.89000000000000
      0.90000000000000
      0.91000000000000
      0.92000000000000
      0.93000000000000
      0.94000000000000
      0.95000000000000
      0.96000000000000
      0.97000000000000
      0.98000000000000
      0.99000000000000
      1.00000000000000
Y_COORDINATES 101 float
      0.00000000000000
      0.01000000000000
      0.02000000000000
      0.03000000000000
      0.04000000000000
      0.05000000000000
      0.06000000000000
      0.07000000000000
      0.08000000000000
      0.09000000000000
      0.10000000000000
      0.11000000000000
      0.12000000000000
      0.13000000000000
      0.14000000000000
      0.15000000000000
      0.16000000000000
      0.17000000000000
      0.18000000000000
      0.19000000000000
      0.20000000000000
      0.21000000000000
      0.22000000000000
      0.23000000000000
      0.24000000000000
      0.25000000000000
      0.26000000000000
      0.27000000000000
      0.28000000000000
      0.29000000000000
      0.30000000000000
      0.31000000000000
      0.32000000000000
      0.33000000000000
      0.34000000000000
      0.35000000000000
      0.36000000000000
      0.37000000000000
      0.38000000000000
      0.39000000000000
      0.40000000000000
      0.41000000000000
      0.42000000000000
      0.43000000000000
      0.44000000000000
      0.45000000000000
      0.46000000000000
      0.47000000000000
      0.48000000000000
      0.49000000000000
      0.50000000000000
      0.51000000000000
      0.52000000000000
      0.53000000000000
      0.54000000000000
      0.55000000000000
      0.56000000000000
      0.57000000000000
      0.58000000000000
      0.59000000000000
      0.60000000000000
      0.61000000000000
      0.62000000000000
      0.63000000000000
      0.64000000000000
      0.65000000000000
      0.66000000000000
      0.67000000000000
      0.68000000000000
      0.69000000000000
      0.70000000000000
      0.71000000000000
      0.72000000000000
      0.73000000000000
      0.74000000000000
      0.75000000000000
      0.76000000000000
      0.77000000000000
      0.78000000000000
      0.79000000000000
      0.80000000000000
      0.81000000000000
      0.82000000000000
      0.83000000000000
      0.84000000000000
      0.85000000000000
      0.86000000000000
      0.87000000000000
      0.88000000000000
      0.89000000000000
      0.90000000000000
      0.91000000000000
      0.92000000000000
      0.93000000000000
      0.94000000000000
      0.95000000000000
      0.96000000000000
      0.97000000000000
      0.98000000000000
      0.99000000000000
      1.00000000000000
Z_COORDINATES   1 float
      1.00000000000000
POINT_DATA            10201
SCALARS u_final float
LOOKUP_TABLE default
      1.00000000000000
      0.00000000000000
      0.00000000000000
      0.00000000000000
      0.00000000000000
      0.00000000000000
      0.00000000000000
      0.00000000000000
      0.00000000000000
      0.00000000000000
      0.00000000000000
      0.00000000000000
      0.00000000000000
      0.00000000000000
      0.00000000000000
      0.00000000000000
      0.00000000000000
      0.00000000000000
      0.00000000000000
      0.00000000000000
      0.00000000000000
      0.00000000000000
      0.00000000000000
      0.00000000000000
      0.00000000000000
      0.00000000000000
      0.00000000000000
      0.00000000000000
      0.00000000000000
      0.00000000000000
      0.00000000000000
      0.00000000000000
      0.00000000000000
      0.00000000000000
      0.00000000000000
      0.00000000000000
      0.00000000000000
      0.00000000000000
      0.00000000000000
      0.00000000000000
      0.00000000000000
      0.00000000000000
      0.00000000000000
      0.00000000000000
      0.00000000000000
      0.00000000000000
      0.00000000000000
      0.00000000000000
      0.00000000000000
      0.00000000000000
      0.00000000000000
      0.00000000000000
      0.00000000000000
      0.00000000000000
      0.00000000000000
      0.00000000000000
      0.00000000000000
      0.00000000000000
      0.00000000000000
      0.00000000000000
      0.00000000000000
      0.00000000000000
      0.00000000000000
      0.00000000000000
      0.00000000000000
      0.00000000000000
      0.00000000000000
      0.00000000000000
      0.00000000000000
      0.00000000000000
      0.00000000000000
      0.00000000000000
      0.00000000000000
      0.00000000000000
      0.00000000000000
      0.00000000000000
      0.00000000000000
      0.00000000000000
      0.00000000000000
      0.00000000000000
      0.00000000000000
      0.00000000000000
      0.00000000000000
      0.00000000000000
      0.00000000000000
      0.00000000000000
      0.00000000000000
      0.00000000000000
      0.00000000000000
      0.00000000000000
      0.00000000000000
      0.00000000000000
      0.00000000000000
      0.00000000000000
      0.00000000000000
      0.00000000000000
      0.00000000000000
      0.00000000000000
      0.00000000000000
      0.00000000000000
      0.00000000000000
      1.00000000000000
      0.11753045642151
     -0.04079818333895
     -0.04891679794120
     -0.03623044415414
     -0.02521114576411
     -0.01779820873550
     -0.01297004568510
     -0.00975563640003
     -0.00753670289058
     -0.00594790442032
     -0.00477315247398
     -0.00388111540281
     -0.00318905500171
     -0.00264287493850
     -0.00220594252350
     -0.00185264874150
     -0.00156457759902
     -0.00132815322559
     -0.00113314972587
     -0.00097172000551
     -0.00083774569762
     -0.00072639104178
     -0.00063378951652
     -0.00055681889626
     -0.00049293651136
     -0.00044005636731
     -0.00039645596092
     -0.00036070457561
     -0.00033160739804
     -0.00030816148921
     -0.00028952077801
     -0.00027496801922
     -0.00026389219463
     -0.00025577021416
     -0.00025015204480
     -0.00024664859238
     -0.00024492180740
     -0.00024467659579
     -0.00024565419956
     -0.00024762677676
     -0.00025039296153
     -0.00025377422503
     -0.00025761189030
     -0.00026176468050
     -0.00026610670082
     -0.00027052577202
     -0.00027492204769
     -0.00027920685931
     -0.00028330174294
     -0.00028713760955
     -0.00029065402795
     -0.00029379859497
     -0.00029652637233
     -0.00029879937383
     -0.00030058608975
     -0.00030186103821
     -0.00030260433586
     -0.00030280128196
     -0.00030244195174
     -0.00030152079638
     -0.00030003624767
     -0.00029799032690
     -0.00029538825756
     -0.00029223808246
     -0.00028855028590
     -0.00028433742202
     -0.00027961375044
     -0.00027439488047
     -0.00026869742496
     -0.00026253866524
     -0.00025593622802
     -0.00024890777556
     -0.00024147070996
     -0.00023364189316
     -0.00022543738363
     -0.00021687219222
     -0.00020796005962
     -0.00019871325996
     -0.00018914243663
     -0.00017925648040
     -0.00016906246421
     -0.00015856565735
     -0.00014776965273
     -0.00013667665917
     -0.00012528803806
     -0.00011360520708
     -0.00010163110370
     -0.00008937251542
     -0.00007684377662
     -0.00006407266613
     -0.00005110993656
     -0.00003804500427
     -0.00002503239109
     -0.00001233738990
     -0.00000041640826
      0.00000994207906
      0.00001738545361
      0.00001970834382
      0.00001399755895
      0.00000000000000
      1.00000000000000
      0.26940563515341
      0.00274673838989
     -0.06504661591091
     -0.06969296740629
     -0.05915931598809
     -0.04738500607427
     -0.03756643147208
     -0.02994281943046
     -0.02410494474357
     -0.01960892729974
     -0.01610419921702
     -0.01333572926388
     -0.01112165987008
     -0.00933186599442
     -0.00787200916032
     -0.00667253377199
     -0.00568124074213
     -0.00485828007986
     -0.00417274429883
     -0.00360031879534
     -0.00312163484105
     -0.00272109495925
     -0.00238602031394
     -0.00210602098484
     -0.00187252303043
     -0.00167840770004
     -0.00151773223403
     -0.00138551102434
     -0.00127754216669
     -0.00119026868100
     -0.00112066659334
     -0.00106615410213
     -0.00102451748363
     -0.00099385041720
     -0.00097250415690
     -0.00095904652680
     -0.00095222813120
     -0.00095095448635
     -0.00095426302479
     -0.00096130411478
     -0.00097132539047
     -0.00098365881028
     -0.00099770996160
     -0.00101294921059
     -0.00102890436372
     -0.00104515456331
     -0.00106132518586
     -0.00107708355079
     -0.00109213528028
     -0.00110622117768
     -0.00111911451620
     -0.00113061864804
     -0.00114056486188
     -0.00114881042959
     -0.00115523679594
     -0.00115974787401
     -0.00116226841860
     -0.00116274245584
     -0.00116113175412
     -0.00115741432546
     -0.00115158295113
     -0.00114364372781
     -0.00113361463380
     -0.00112152411611
     -0.00110740970118
     -0.00109131663244
     -0.00107329653934
     -0.00105340614204
     -0.00103170599693
     -0.00100825928767
     -0.00098313066715
     -0.00095638515545
     -0.00092808710008
     -0.00089829920520
     -0.00086708163895
     -0.00083449123015
     -0.00080058077107
     -0.00076539844856
     -0.00072898743714
     -0.00069138570151
     -0.00065262607857
     -0.00061273674079
     -0.00057174219095
     -0.00052966500889
     -0.00048652867850
     -0.00044236198547
     -0.00039720572805
     -0.00035112287587
     -0.00030421393679
     -0.00025664029707
     -0.00020865993670
     -0.00016068258456
     -0.00011335564139
     -0.00006769862099
     -0.00002531198388
      0.00001130933058
      0.00003834932707
      0.00005024397990
      0.00003976505545
      0.00000000000000
      1.00000000000000
      0.39667140831854
      0.08662132024153
     -0.03812060354163
     -0.07609488881954
     -0.07985656613418
     -0.07222475261255
     -0.06200070526656
     -0.05222563263805
     -0.04375302207292
     -0.03666493700426
     -0.03080559097256
     -0.02597223147751
     -0.02197725596559
     -0.01866369509313
     -0.01590495970225
     -0.01360016766441
     -0.01166897567979
     -0.01004710448560
     -0.00868277499399
     -0.00753396268856
     -0.00656630648993
     -0.00575151682568
     -0.00506615709317
     -0.00449070284673
     -0.00400880802049
     -0.00360672658118
     -0.00327285203421
     -0.00299734733358
     -0.00277184499521
     -0.00258920239767
     -0.00244330097008
     -0.00232888065045
     -0.00224140294997
     -0.00217693739919
     -0.00213206722517
     -0.00210381092324
     -0.00208955701180
     -0.00208700974752
     -0.00209414396458
     -0.00210916751247
     -0.00213049001841
     -0.00215669690820
     -0.00218652778983
     -0.00221885844779
     -0.00225268581509
     -0.00228711539174
     -0.00232135066284
     -0.00235468414275
     -0.00238648973231
     -0.00241621612923
     -0.00244338107557
     -0.00246756626495
     -0.00248841276364
     -0.00250561682815
     -0.00251892602460
     -0.00252813557560
     -0.00253308487681
     -0.00253365413999
     -0.00252976113043
     -0.00252135797756
     -0.00250842804441
     -0.00249098284917
     -0.00246905903651
     -0.00244271540093
     -0.00241202996688
     -0.00237709713353
     -0.00233802489236
     -0.00229493212836
     -0.00224794601508
     -0.00219719951552
     -0.00214282900086
     -0.00208497200104
     -0.00202376510225
     -0.00195934201068
     -0.00189183180539
     -0.00182135741227
     -0.00174803434043
     -0.00167196974025
     -0.00159326186455
     -0.00151200004955
     -0.00142826538021
     -0.00134213227628
     -0.00125367133617
     -0.00116295392574
     -0.00107005921483
     -0.00097508468588
     -0.00087816161408
     -0.00077947773181
     -0.00067931036084
     -0.00057807491016
     -0.00047639604649
     -0.00037521236399
     -0.00027593024038
     -0.00018064847329
     -0.00009248012714
     -0.00001599495239
      0.00004222161035
      0.00007297471418
      0.00006403631216
      0.00000000000000
      1.00000000000000
      0.49303031753421
      0.17625569608199
      0.01340114251986
     -0.05774364639672
     -0.08219231988953
     -0.08528489872342
     -0.07962270526301
     -0.07102328607510
     -0.06201338461679
     -0.05360273112358
     -0.04612657455139
     -0.03963254642246
     -0.03405455545044
     -0.02928925170336
     -0.02522843287454
     -0.02177174622200
     -0.01883074294042
     -0.01632928342072
     -0.01420253236479
     -0.01239552550098
     -0.01086171874900
     -0.00956167443492
     -0.00846192726257
     -0.00753402670363
     -0.00675373596954
     -0.00610036399251
     -0.00555620820639
     -0.00510608894928
     -0.00473695956391
     -0.00443757919286
     -0.00419823770611
     -0.00401052416521
     -0.00386713179287
     -0.00376169365451
     -0.00368864424352
     -0.00364310294939
     -0.00362077602738
     -0.00361787420960
     -0.00363104353044
     -0.00365730730011
     -0.00369401746476
     -0.00373881384984
     -0.00378959000440
     -0.00384446455211
     -0.00390175711821
     -0.00395996804019
     -0.00401776119149
     -0.00407394935022
     -0.00412748163571
     -0.00417743261168
     -0.00422299272239
     -0.00426345978475
     -0.00429823130919
     -0.00432679746395
     -0.00434873453422
     -0.00436369875798
     -0.00437142044739
     -0.00437169832603
     -0.00436439403201
     -0.00434942675151
     -0.00432676796131
     -0.00429643626816
     -0.00425849234248
     -0.00421303394924
     -0.00416019108519
     -0.00410012123439
     -0.00403300475774
     -0.00395904043367
     -0.00387844116969
     -0.00379142990528
     -0.00369823572993
     -0.00359909024155
     -0.00349422417634
     -0.00338386434608
     -0.00326823092990
     -0.00314753518026
     -0.00302197762463
     -0.00289174687196
     -0.00275701917581
     -0.00261795896311
     -0.00247472062106
     -0.00232745194960
     -0.00217629985284
     -0.00202141907392
     -0.00186298511107
     -0.00170121292407
     -0.00153638371847
     -0.00136888306193
     -0.00119925496881
     -0.00102827853371
     -0.00085707637998
     -0.00068726772823
     -0.00052118318059
     -0.00036216261830
     -0.00021495990077
     -0.00008627440783
      0.00001458424496
      0.00007490845289
      0.00007765143639
      0.00000000000000
      1.00000000000000
      0.56469128920176
      0.25773394084346
      0.07379043984212
     -0.02365177106877
     -0.06898467124452
     -0.08579858359800
     -0.08809958475875
     -0.08356825377483
     -0.07621393575898
     -0.06805037117779
     -0.06004447260680
     -0.05262591233759
     -0.04595378083097
     -0.04005433678544
     -0.03489163080593
     -0.03040342868069
     -0.02651922921007
     -0.02316904519547
     -0.02028742828015
     -0.01781506156302
     -0.01569912927117
     -0.01389309364469
     -0.01235620659366
     -0.01105292483778
     -0.00995231360730
     -0.00902747996077
     -0.00825505370130
     -0.00761472192221
     -0.00708881716382
     -0.00666195624606
     -0.00632072556941
     -0.00605340826478
     -0.00584974859452
     -0.00570074924324
     -0.00559849746664
     -0.00553601643101
     -0.00550713844031
     -0.00550639709979
     -0.00552893579301
     -0.00557043015427
     -0.00562702249512
     -0.00569526639699
     -0.00577207990826
     -0.00585470598914
     -0.00594067902881
     -0.00602779642259
     -0.00611409433886
     -0.00619782693378
     -0.00627744838193
     -0.00635159718996
     -0.00641908234504
     -0.00647887092526
     -0.00653007686354
     -0.00657195061347
     -0.00660386951332
     -0.00662532868752
     -0.00663593235927
     -0.00663538547993
     -0.00662348560510
     -0.00660011497036
     -0.00656523273605
     -0.00651886738666
     -0.00646110928044
     -0.00639210335635
     -0.00631204201059
     -0.00622115816287
     -0.00611971853489
     -0.00600801716910
     -0.00588636921694
     -0.00575510503102
     -0.00561456459736
     -0.00546509235130
     -0.00530703242589
     -0.00514072439434
     -0.00496649958185
     -0.00478467804577
     -0.00459556635296
     -0.00439945632844
     -0.00419662500893
     -0.00398733612129
     -0.00377184352098
     -0.00355039718964
     -0.00332325261225
     -0.00309068466528
     -0.00285300757248
     -0.00261060307615
     -0.00236395978213
     -0.00211372774947
     -0.00186079389715
     -0.00160638579551
     -0.00135221396209
     -0.00110066587619
     -0.00085506830889
     -0.00062003762270
     -0.00040193939296
     -0.00020947838834
     -0.00005444054486
      0.00004737453517
      0.00007491492464
      0.00000000000000
      1.00000000000000
      0.61859346634520
      0.32759143639098
      0.13422262859019
      0.01825715959221
     -0.04509014684504
     -0.07585537408309
     -0.08770264138437
     -0.08913981649617
     -0.08518783649740
     -0.07870908162778
     -0.07129160432804
     -0.06379056036803
     -0.05664596572463
     -0.05006526216533
     -0.04412719487737
     -0.03884069748101
     -0.03417822336874
     -0.03009457039728
     -0.02653744640997
     -0.02345331263559
     -0.02079051676128
     -0.01850086753984
     -0.01654031542860
     -0.01486912553159
     -0.01345176892416
     -0.01225666533658
     -0.01125585553594
     -0.01042464936026
     -0.00974127598429
     -0.00918655130400
     -0.00874357023032
     -0.00839742736166
     -0.00813496688833
     -0.00794456101736
     -0.00781591530660
     -0.00773989881215
     -0.00770839673735
     -0.00771418322110
     -0.00775081196113
     -0.00781252248661
     -0.00789416005254
     -0.00799110730186
     -0.00809922602305
     -0.00821480750839
     -0.00833453019062
     -0.00845542339549
     -0.00857483619805
     -0.00869041050531
     -0.00880005761275
     -0.00890193759142
     -0.00899444096271
     -0.00907617220415
     -0.00914593470828
     -0.00920271688313
     -0.00924567914335
     -0.00927414159124
     -0.00928757223245
     -0.00928557560771
     -0.00926788175572
     -0.00923433544797
     -0.00918488566052
     -0.00911957526467
     -0.00903853093547
     -0.00894195328744
     -0.00883010725824
     -0.00870331276688
     -0.00856193568115
     -0.00840637913199
     -0.00823707521934
     -0.00805447715685
     -0.00785905191123
     -0.00765127339728
     -0.00743161630370
     -0.00720055063749
     -0.00695853709958
     -0.00670602343253
     -0.00644344192637
     -0.00617120832521
     -0.00588972245966
     -0.00559937103796
     -0.00530053317890
     -0.00499358946882
     -0.00467893559833
     -0.00435700199765
     -0.00402828138211
     -0.00369336677244
     -0.00335300342577
     -0.00300815924978
     -0.00266011974146
     -0.00231061532743
     -0.00196199119661
     -0.00161743221479
     -0.00128125809424
     -0.00095930633409
     -0.00065942241789
     -0.00039207930422
     -0.00017115561000
     -0.00001492489558
      0.00005263458209
      0.00000000000000
      1.00000000000000
      0.66002128517742
      0.38634443678586
      0.19070221252187
      0.06272545256054
     -0.01487560017038
     -0.05828405079216
     -0.07988253839222
     -0.08820742986501
     -0.08879538133714
     -0.08510363565199
     -0.07923594592237
     -0.07244565049280
     -0.06546235921040
     -0.05869690805201
     -0.05236767503096
     -0.04657779368317
     -0.04136221831961
     -0.03671640473221
     -0.03261378912754
     -0.02901642312404
     -0.02588140809697
     -0.02316473805821
     -0.02082353674436
     -0.01881729728082
     -0.01710850303061
     -0.01566286719228
     -0.01444934130361
     -0.01343998808940
     -0.01260977946721
     -0.01193635839051
     -0.01139978891516
     -0.01098230957444
     -0.01066809905426
     -0.01044305916381
     -0.01029461747739
     -0.01021155032704
     -0.01018382574431
     -0.01020246528984
     -0.01025942332914
     -0.01034748212692
     -0.01046016107146
     -0.01059163836561
     -0.01073668359736
     -0.01089059971368
     -0.01104917304626
     -0.01120863017341
     -0.01136560053455
     -0.01151708384526
     -0.01166042148176
     -0.01179327111981
     -0.01191358401547
     -0.01201958441180
     -0.01210975063910
     -0.01218279755368
     -0.01223766002531
     -0.01227347724421
     -0.01228957766765
     -0.01228546447212
     -0.01226080141301
     -0.01221539902767
     -0.01214920114234
     -0.01206227166803
     -0.01195478168626
     -0.01182699684246
     -0.01167926507468
     -0.01151200471670
     -0.01132569302040
     -0.01112085515109
     -0.01089805371373
     -0.01065787887723
     -0.01040093916984
     -0.01012785303234
     -0.00983924122791
     -0.00953572023107
     -0.00921789674380
     -0.00888636352935
     -0.00854169680449
     -0.00818445550680
     -0.00781518284789
     -0.00743441069649
     -0.00704266750615
     -0.00664049073413
     -0.00622844499852
     -0.00580714762000
     -0.00537730371019
     -0.00493975364071
     -0.00449553657991
     -0.00404597486325
     -0.00359278528262
     -0.00313822495720
     -0.00268528123813
     -0.00223791702833
     -0.00180138482401
     -0.00138262463998
     -0.00099076299688
     -0.00063773347658
     -0.00033904679682
     -0.00011475450348
      0.00000932211597
      0.00000000000000
      1.00000000000000
      0.69263201671028
      0.43565704408382
      0.24185905881108
      0.10672555914919
      0.01845118631166
     -0.03567345250279
     -0.06639462466991
     -0.08178057583406
     -0.08748505558145
     -0.08730318102056
     -0.08371127188902
     -0.07829217737646
     -0.07203959082197
     -0.06556489056588
     -0.05923380449147
     -0.05325534565239
     -0.04773925978359
     -0.04273302466119
     -0.03824566341630
     -0.03426306840249
     -0.03075785020285
     -0.02769564363992
     -0.02503911159900
     -0.02275044740275
     -0.02079289571027
     -0.01913163193460
     -0.01773422402911
     -0.01657082493656
     -0.01561419441116
     -0.01483961608466
     -0.01422475370999
     -0.01374947573825
     -0.01339566736780
     -0.01314704237823
     -0.01298896240398
     -0.01290826812483
     -0.01289312469839
     -0.01293288231616
     -0.01301795181881
     -0.01313969470447
     -0.01329032650552
     -0.01346283231534
     -0.01365089316980
     -0.01384882198572
     -0.01405150780892
     -0.01425436720336
     -0.01445330171256
     -0.01464466042995
     -0.01482520682492
     -0.01499208907712
     -0.01514281327455
     -0.01527521892477
     -0.01538745631783
     -0.01547796535698
     -0.01554545554670
     -0.01558888688896
     -0.01560745149599
     -0.01560055577500
     -0.01556780308356
     -0.01550897678830
     -0.01542402369171
     -0.01531303781484
     -0.01517624454624
     -0.01501398518257
     -0.01482670190173
     -0.01461492321864
     -0.01437924998500
     -0.01412034200064
     -0.01383890531421
     -0.01353568029737
     -0.01321143059009
     -0.01286693302534
     -0.01250296866349
     -0.01212031508887
     -0.01171974015840
     -0.01130199743644
     -0.01086782361491
     -0.01041793829918
     -0.00995304665291
     -0.00947384553731
     -0.00898103397266
     -0.00847532899189
     -0.00795748827553
     -0.00742834135796
     -0.00688883171027
     -0.00634007264203
     -0.00578342075725
     -0.00522057164938
     -0.00465368364302
     -0.00408553665462
     -0.00351973461861
     -0.00296096132108
     -0.00241530084265
     -0.00189063512632
     -0.00139713271568
     -0.00094784511305
     -0.00055943158707
     -0.00025304013229
     -0.00005537838845
      0.00000000000000
      1.00000000000000
      0.71889932196726
      0.47728424913375
      0.28757550374012
      0.14870591261771
      0.05276937760270
     -0.01005835394634
     -0.04886784036880
     -0.07100693090842
     -0.08197337816912
     -0.08568682086067
     -0.08485423360728
     -0.08130377297207
     -0.07624860377715
     -0.07048064140886
     -0.06450710571529
     -0.05864452594271
     -0.05308260129874
     -0.04792727823024
     -0.04322970859884
     -0.03900568488628
     -0.03524866833755
     -0.03193850478894
     -0.02904723245742
     -0.02654292384423
     -0.02439219582091
     -0.02256181653277
     -0.02101970033957
     -0.01973548964098
     -0.01868085994425
     -0.01782964197120
     -0.01715782540402
     -0.01664348871026
     -0.01626668548096
     -0.01600930794446
     -0.01585494147506
     -0.01578871912517
     -0.01579718185606
     -0.01586814781196
     -0.01599059237372
     -0.01615453963844
     -0.01635096524721
     -0.01657171002287
     -0.01680940360163
     -0.01705739709722
     -0.01730970377733
     -0.01756094673747
     -0.01780631259893
     -0.01804151032793
     -0.01826273435342
     -0.01846663125262
     -0.01865026936195
     -0.01881111076190
     -0.01894698516691
     -0.01905606533196
     -0.01913684365743
     -0.01918810974117
     -0.01920892868220
     -0.01919861999395
     -0.01915673702674
     -0.01908304683976
     -0.01897751049282
     -0.01884026375737
     -0.01867159826664
     -0.01847194314519
     -0.01824184717103
     -0.01798196153819
     -0.01769302329564
     -0.01737583955035
     -0.01703127252932
     -0.01666022560831
     -0.01626363042490
     -0.01584243521277
     -0.01539759451290
     -0.01493006044977
     -0.01444077579678
     -0.01393066911077
     -0.01340065228196
     -0.01285162093964
     -0.01228445826937
     -0.01170004295361
     -0.01109926213984
     -0.01048303059235
     -0.00985231749269
     -0.00920818274682
     -0.00855182513207
     -0.00788464520074
     -0.00720832654195
     -0.00652493980453
     -0.00583707477290
     -0.00514800674950
     -0.00446190446492
     -0.00378408766106
     -0.00312134329783
     -0.00248231002906
     -0.00187794124680
     -0.00132205778422
     -0.00083200222523
     -0.00042940654982
     -0.00014107945432
      0.00000000000000
      1.00000000000000
      0.74050364866308
      0.51274449671207
      0.32825990635849
      0.18799196035770
      0.08677596358137
      0.01708885506159
     -0.02864487878304
     -0.05696313978340
     -0.07304415018920
     -0.08077540491921
     -0.08297364386336
     -0.08162980429566
     -0.07812510508834
     -0.07340270449503
     -0.06809651180444
     -0.06262467697987
     -0.05725610263706
     -0.05215720332454
     -0.04742454973298
     -0.04310756540496
     -0.03922426487391
     -0.03577214055680
     -0.03273567077065
     -0.03009147356048
     -0.02781181901277
     -0.02586699643231
     -0.02422688301799
     -0.02286195685057
     -0.02174392479156
     -0.02084608543916
     -0.02014351186994
     -0.01961311390369
     -0.01923362191948
     -0.01898552164775
     -0.01885096037481
     -0.01881363857242
     -0.01885869638082
     -0.01897260110648
     -0.01914303958348
     -0.01935881762125
     -0.01960976763648
     -0.01988666479978
     -0.02018115152412
     -0.02048566980160
     -0.02079340071138
     -0.02109821032812
     -0.02139460123484
     -0.02167766885902
     -0.02194306189812
     -0.02218694616113
     -0.02240597122709
     -0.02259723939561
     -0.02275827648266
     -0.02288700408611
     -0.02298171301719
     -0.02304103765509
     -0.02306393104229
     -0.02304964058699
     -0.02299768428675
     -0.02290782742390
     -0.02278005971951
     -0.02261457295778
     -0.02241173911924
     -0.02217208907725
     -0.02189629193127
     -0.02158513506023
     -0.02123950499401
     -0.02086036920766
     -0.02044875895710
     -0.02000575328282
     -0.01953246432596
     -0.01903002411553
     -0.01849957301344
     -0.01794225003229
     -0.01735918528697
     -0.01675149489395
     -0.01612027870867
     -0.01546662138292