# vtk DataFile Version 3.0
Non-uniform Rectilinear - Rectilinear Grid
ASCII
DATASET RECTILINEAR_GRID
DIMENSIONS   5   5   1
X_COORDINATES   5 float
      0.00000000000000
      0.16666666666667
      0.50000000000000
      0.83333333333333
      1.00000000000000
Y_COORDINATES   5 float
      0.00000000000000
      0.16666666666667
      0.50000000000000
      0.83333333333333
      1.00000000000000
Z_COORDINATES   1 float
      1.00000000000000
POINT_DATA               25
SCALARS ae float
LOOKUP_TABLE default
      0.00000000000000
      0.00000000000000
      0.00000000000000
      0.00000000000000
      0.00000000000000
      0.00000000000000
      0.13122923588040
      0.13122923588040
      0.26245847176080
      0.00000000000000
      0.00000000000000
      0.26245847176080
      0.26245847176080
      0.52491694352159
      0.00000000000000
      0.00000000000000
      0.26245847176080
      0.26245847176080
      0.52491694352159
      0.00000000000000
      0.00000000000000
      0.00000000000000
      0.00000000000000
      0.00000000000000
      0.00000000000000
SCALARS aw float
LOOKUP_TABLE default
      0.00000000000000
      0.00000000000000
      0.00000000000000
      0.00000000000000
      0.00000000000000
      0.00000000000000
   5404.26245847176051
   5404.13122923588071
   5404.13122923588071
      0.00000000000000
      0.00000000000000
   5404.52491694352193
   5404.26245847176051
   5404.26245847176051
      0.00000000000000
      0.00000000000000
   5404.52491694352193
   5404.26245847176051
   5404.26245847176051
      0.00000000000000
      0.00000000000000
      0.00000000000000
      0.00000000000000
      0.00000000000000
      0.00000000000000
SCALARS an float
LOOKUP_TABLE default
      0.00000000000000
      0.00000000000000
      0.00000000000000
      0.00000000000000
      0.00000000000000
      0.00000000000000
      0.13122923588040
      0.26245847176080
      0.26245847176080
      0.00000000000000
      0.00000000000000
      0.13122923588040
      0.26245847176080
      0.26245847176080
      0.00000000000000
      0.00000000000000
      0.26245847176080
      0.52491694352159
      0.52491694352159
      0.00000000000000
      0.00000000000000
      0.00000000000000
      0.00000000000000
      0.00000000000000
      0.00000000000000
SCALARS as float
LOOKUP_TABLE default
      0.00000000000000
      0.00000000000000
      0.00000000000000
      0.00000000000000
      0.00000000000000
      0.00000000000000
   5404.26245847176051
   5404.52491694352193
   5404.52491694352193
      0.00000000000000
      0.00000000000000
   5404.13122923588071
   5404.26245847176051
   5404.26245847176051
      0.00000000000000
      0.00000000000000
   5404.13122923588071
   5404.26245847176051
   5404.26245847176051
      0.00000000000000
      0.00000000000000
      0.00000000000000
      0.00000000000000
      0.00000000000000
      0.00000000000000
SCALARS ap float
LOOKUP_TABLE default
      1.00000000000000
      1.00000000000000
      1.00000000000000
      1.00000000000000
      1.00000000000000
      1.00000000000000
  10808.78737541528244
  10809.04983388704386
  10809.18106312292366
      1.00000000000000
      1.00000000000000
  10809.04983388704386
  10809.04983388704204
  10809.31229235880346
      1.00000000000000
      1.00000000000000
  10809.18106312292366
  10809.31229235880346
  10809.57475083056488
      1.00000000000000
      1.00000000000000
      1.00000000000000
      1.00000000000000
      1.00000000000000
      1.00000000000000
SCALARS b float
LOOKUP_TABLE default
    100.00000000000000
      0.00000000000000
      0.00000000000000
      0.00000000000000
      0.00000000000000
    100.00000000000000
      0.00000000000000
      0.00000000000000
      0.00000000000000
      0.00000000000000
    100.00000000000000
      0.00000000000000
      0.00000000000000
      0.00000000000000
      0.00000000000000
    100.00000000000000
      0.00000000000000
      0.00000000000000
      0.00000000000000
      0.00000000000000
    100.00000000000000
    100.00000000000000
    100.00000000000000
    100.00000000000000
      0.00000000000000
SCALARS T float
LOOKUP_TABLE default
    100.00000000000000
      0.00000000000000
      0.00000000000000
      0.00000000000000
      0.00000000000000
    100.00000000000000
     50.00000000000000
     24.99954471797930
     12.49946883273075
      0.00000000000000
    100.00000000000000
     75.00045528202070
     50.00000000000000
     31.24867215183689
      0.00000000000000
    100.00000000000000
     87.50053116726926
     68.75132784816311
     49.99999999999999
      0.00000000000000
    100.00000000000000
    100.00000000000000
    100.00000000000000
    100.00000000000000
      0.00000000000000
