# vtk DataFile Version 3.0
Non-uniform Rectilinear - Rectilinear Grid
ASCII
DATASET RECTILINEAR_GRID
DIMENSIONS 101 101   1
X_COORDINATES 101 float
      0.00000000000000
      0.00505050505051
      0.01515151515152
      0.02525252525253
      0.03535353535354
      0.04545454545455
      0.05555555555556
      0.06565656565657
      0.07575757575758
      0.08585858585859
      0.09595959595960
      0.10606060606061
      0.11616161616162
      0.12626262626263
      0.13636363636364
      0.14646464646465
      0.15656565656566
      0.16666666666667
      0.17676767676768
      0.18686868686869
      0.19696969696970
      0.20707070707071
      0.21717171717172
      0.22727272727273
      0.23737373737374
      0.24747474747475
      0.25757575757576
      0.26767676767677
      0.27777777777778
      0.28787878787879
      0.29797979797980
      0.30808080808081
      0.31818181818182
      0.32828282828283
      0.33838383838384
      0.34848484848485
      0.35858585858586
      0.36868686868687
      0.37878787878788
      0.38888888888889
      0.39898989898990
      0.40909090909091
      0.41919191919192
      0.42929292929293
      0.43939393939394
      0.44949494949495
      0.45959595959596
      0.46969696969697
      0.47979797979798
      0.48989898989899
      0.50000000000000
      0.51010101010101
      0.52020202020202
      0.53030303030303
      0.54040404040404
      0.55050505050505
      0.56060606060606
      0.57070707070707
      0.58080808080808
      0.59090909090909
      0.60101010101010
      0.61111111111111
      0.62121212121212
      0.63131313131313
      0.64141414141414
      0.65151515151515
      0.66161616161616
      0.67171717171717
      0.68181818181818
      0.69191919191919
      0.70202020202020
      0.71212121212121
      0.72222222222222
      0.73232323232323
      0.74242424242424
      0.75252525252525
      0.76262626262626
      0.77272727272727
      0.78282828282828
      0.79292929292929
      0.80303030303030
      0.81313131313131
      0.82323232323232
      0.83333333333333
      0.84343434343434
      0.85353535353535
      0.86363636363636
      0.87373737373737
      0.88383838383838
      0.89393939393939
      0.90404040404040
      0.91414141414141
      0.92424242424242
      0.93434343434343
      0.94444444444444
      0.95454545454545
      0.96464646464646
      0.97474747474747
      0.98484848484848
      0.99494949494950
      1.00000000000000
Y_COORDINATES 101 float
      0.00000000000000
      0.00505050505051
      0.01515151515152
      0.02525252525253
      0.03535353535354
      0.04545454545455
      0.05555555555556
      0.06565656565657
      0.07575757575758
      0.08585858585859
      0.09595959595960
      0.10606060606061
      0.11616161616162
      0.12626262626263
      0.13636363636364
      0.14646464646465
      0.15656565656566
      0.16666666666667
      0.17676767676768
      0.18686868686869
      0.19696969696970
      0.20707070707071
      0.21717171717172
      0.22727272727273
      0.23737373737374
      0.24747474747475
      0.25757575757576
      0.26767676767677
      0.27777777777778
      0.28787878787879
      0.29797979797980
      0.30808080808081
      0.31818181818182
      0.32828282828283
      0.33838383838384
      0.34848484848485
      0.35858585858586
      0.36868686868687
      0.37878787878788
      0.38888888888889
      0.39898989898990
      0.40909090909091
      0.41919191919192
      0.42929292929293
      0.43939393939394
      0.44949494949495
      0.45959595959596
      0.46969696969697
      0.47979797979798
      0.48989898989899
      0.50000000000000
      0.51010101010101
      0.52020202020202
      0.53030303030303
      0.54040404040404
      0.55050505050505
      0.56060606060606
      0.57070707070707
      0.58080808080808
      0.59090909090909
      0.60101010101010
      0.61111111111111
      0.62121212121212
      0.63131313131313
      0.64141414141414
      0.65151515151515
      0.66161616161616
      0.67171717171717
      0.68181818181818
      0.69191919191919
      0.70202020202020
      0.71212121212121
      0.72222222222222
      0.73232323232323
      0.74242424242424
      0.75252525252525
      0.76262626262626
      0.77272727272727
      0.78282828282828
      0.79292929292929
      0.80303030303030
      0.81313131313131
      0.82323232323232
      0.83333333333333
      0.84343434343434
      0.85353535353535
      0.86363636363636
      0.87373737373737
      0.88383838383838
      0.89393939393939
      0.90404040404040
      0.91414141414141
      0.92424242424242
      0.93434343434343
      0.94444444444444
      0.95454545454545
      0.96464646464646
      0.97474747474747
      0.98484848484848
      0.99494949494950
      1.00000000000000
Z_COORDINATES   1 float
      1.00000000000000
POINT_DATA            10201
SCALARS T float
LOOKUP_TABLE default
    100.00000000000000
      0.00000000000000
      0.00000000000000
      0.00000000000000
      0.00000000000000
      0.00000000000000
      0.00000000000000
      0.00000000000000
      0.00000000000000
      0.00000000000000
      0.00000000000000
      0.00000000000000
      0.00000000000000
      0.00000000000000
      0.00000000000000
      0.00000000000000
      0.00000000000000
      0.00000000000000
      0.00000000000000
      0.00000000000000
      0.00000000000000
      0.00000000000000
      0.00000000000000
      0.00000000000000
      0.00000000000000
      0.00000000000000
      0.00000000000000
      0.00000000000000
      0.00000000000000
      0.00000000000000
      0.00000000000000
      0.00000000000000
      0.00000000000000
      0.00000000000000
      0.00000000000000
      0.00000000000000
      0.00000000000000
      0.00000000000000
      0.00000000000000
      0.00000000000000
      0.00000000000000
      0.00000000000000
      0.00000000000000
      0.00000000000000
      0.00000000000000
      0.00000000000000
      0.00000000000000
      0.00000000000000
      0.00000000000000
      0.00000000000000
      0.00000000000000
      0.00000000000000
      0.00000000000000
      0.00000000000000
      0.00000000000000
      0.00000000000000
      0.00000000000000
      0.00000000000000
      0.00000000000000
      0.00000000000000
      0.00000000000000
      0.00000000000000
      0.00000000000000
      0.00000000000000
      0.00000000000000
      0.00000000000000
      0.00000000000000
      0.00000000000000
      0.00000000000000
      0.00000000000000
      0.00000000000000
      0.00000000000000
      0.00000000000000
      0.00000000000000
      0.00000000000000
      0.00000000000000
      0.00000000000000
      0.00000000000000
      0.00000000000000
      0.00000000000000
      0.00000000000000
      0.00000000000000
      0.00000000000000
      0.00000000000000
      0.00000000000000
      0.00000000000000
      0.00000000000000
      0.00000000000000
      0.00000000000000
      0.00000000000000
      0.00000000000000
      0.00000000000000
      0.00000000000000
      0.00000000000000
      0.00000000000000
      0.00000000000000
      0.00000000000000
      0.00000000000000
      0.00000000000000
      0.00000000000000
      0.00000000000000
    100.00000000000000
     49.99999999999999
     24.97027081479118
     12.48525982068856
      6.25017773975705
      3.13261011612341
      1.57194608718642
      0.78973937805917
      0.39722970476442
      0.20003582386220
      0.10085043756926
      0.05090342691761
      0.02572232729872
      0.01301253197949
      0.00659015353498
      0.00334121851874
      0.00169583238115
      0.00086163313541
      0.00043824372080
      0.00022312847383
      0.00011371877403
      0.00005801481544
      0.00002962557225
      0.00001514282977
      0.00000774731210
      0.00000396725358
      0.00000203336288
      0.00000104307837
      0.00000053553419
      0.00000027517996
      0.00000014151318
      0.00000007283140
      0.00000003751228
      0.00000001933538
      0.00000000997351
      0.00000000514814
      0.00000000265921
      0.00000000137450
      0.00000000071092
      0.00000000036794
      0.00000000019054
      0.00000000009874
      0.00000000005119
      0.00000000002656
      0.00000000001379
      0.00000000000716
      0.00000000000372
      0.00000000000193
      0.00000000000101
      0.00000000000052
      0.00000000000027
      0.00000000000014
      0.00000000000007
      0.00000000000004
      0.00000000000002
      0.00000000000001
      0.00000000000001
      0.00000000000000
      0.00000000000000
      0.00000000000000
      0.00000000000000
      0.00000000000000
      0.00000000000000
      0.00000000000000
      0.00000000000000
      0.00000000000000
      0.00000000000000
      0.00000000000000
      0.00000000000000
      0.00000000000000
      0.00000000000000
      0.00000000000000
      0.00000000000000
      0.00000000000000
      0.00000000000000
      0.00000000000000
      0.00000000000000
      0.00000000000000
      0.00000000000000
      0.00000000000000
      0.00000000000000
      0.00000000000000
      0.00000000000000
      0.00000000000000
      0.00000000000000
      0.00000000000000
      0.00000000000000
      0.00000000000000
      0.00000000000000
      0.00000000000000
      0.00000000000000
      0.00000000000000
      0.00000000000000
      0.00000000000000
      0.00000000000000
      0.00000000000000
      0.00000000000000
      0.00000000000000
      0.00000000000000
      0.00000000000000
      0.00000000000000
    100.00000000000000
     75.02972918520882
     50.00000000000000
     31.25760126107615
     18.77259925401450
     10.96944976273026
      6.28381248206015
      3.54615828224993
      1.97804089237744
      1.09316351942526
      0.59960868777034
      0.32685889777155
      0.17725968589497
      0.09571305625817
      0.05149071788695
      0.02761314008899
      0.01476807109350
      0.00787976335964
      0.00419584119857
      0.00223026303036
      0.00118364766319
      0.00062733949846
      0.00033210073509
      0.00017562557818
      0.00009279234087
      0.00004898824019
      0.00002584461029
      0.00001362651118
      0.00000718074793
      0.00000378229173
      0.00000199144099
      0.00000104816779
      0.00000055152661
      0.00000029013060
      0.00000015259108
      0.00000008023958
      0.00000004218771
      0.00000002217856
      0.00000001165849
      0.00000000612805
      0.00000000322094
      0.00000000169290
      0.00000000088977
      0.00000000046765
      0.00000000024580
      0.00000000012920
      0.00000000006791
      0.00000000003570
      0.00000000001877
      0.00000000000987
      0.00000000000519
      0.00000000000273
      0.00000000000143
      0.00000000000075
      0.00000000000040
      0.00000000000021
      0.00000000000011
      0.00000000000006
      0.00000000000003
      0.00000000000002
      0.00000000000001
      0.00000000000000
      0.00000000000000
      0.00000000000000
      0.00000000000000
      0.00000000000000
      0.00000000000000
      0.00000000000000
      0.00000000000000
      0.00000000000000
      0.00000000000000
      0.00000000000000
      0.00000000000000
      0.00000000000000
      0.00000000000000
      0.00000000000000
      0.00000000000000
      0.00000000000000
      0.00000000000000
      0.00000000000000
      0.00000000000000
      0.00000000000000
      0.00000000000000
      0.00000000000000
      0.00000000000000
      0.00000000000000
      0.00000000000000
      0.00000000000000
      0.00000000000000
      0.00000000000000
      0.00000000000000
      0.00000000000000
      0.00000000000000
      0.00000000000000
      0.00000000000000
      0.00000000000000
      0.00000000000000
      0.00000000000000
      0.00000000000000
      0.00000000000000
      0.00000000000000
    100.00000000000000
     87.51474017931145
     68.74239873892385
     50.00000000000001
     34.39564109263237
     22.69562305070992
     14.50280154726364
      9.03570540708712
      5.51565581450212
      3.31086277420537
      1.95976384246784
      1.14637818785967
      0.66383833858664
      0.38107517855169
      0.21710330381477
      0.12286778842261
      0.06913008609061
      0.03869386373540
      0.02155801564702
      0.01196129215338
      0.00661199305729
      0.00364275763894
      0.00200083164126
      0.00109596140291
      0.00059881447734
      0.00032643551339
      0.00017758076864
      0.00009641935824
      0.00005226017448
      0.00002827987673
      0.00001528058417
      0.00000824534219
      0.00000444354457
      0.00000239190681
      0.00000128614783
      0.00000069088257
      0.00000037077988
      0.00000019881808
      0.00000010652469
      0.00000005703271
      0.00000003051406
      0.00000001631545
      0.00000000871848
      0.00000000465633
      0.00000000248555
      0.00000000132616
      0.00000000070725
      0.00000000037703
      0.00000000020091
      0.00000000010702
      0.00000000005699
      0.00000000003034
      0.00000000001615
      0.00000000000859
      0.00000000000457
      0.00000000000243
      0.00000000000129
      0.00000000000069
      0.00000000000037
      0.00000000000019
      0.00000000000010
      0.00000000000005
      0.00000000000003
      0.00000000000002
      0.00000000000001
      0.00000000000000
      0.00000000000000
      0.00000000000000
      0.00000000000000
      0.00000000000000
      0.00000000000000
      0.00000000000000
      0.00000000000000
      0.00000000000000
      0.00000000000000
      0.00000000000000
      0.00000000000000
      0.00000000000000
      0.00000000000000
      0.00000000000000
      0.00000000000000
      0.00000000000000
      0.00000000000000
      0.00000000000000
      0.00000000000000
      0.00000000000000
      0.00000000000000
      0.00000000000000
      0.00000000000000
      0.00000000000000
      0.00000000000000
      0.00000000000000
      0.00000000000000
      0.00000000000000
      0.00000000000000
      0.00000000000000
      0.00000000000000
      0.00000000000000
      0.00000000000000
      0.00000000000000
      0.00000000000000
    100.00000000000000
     93.74982226024295
     81.22740074598551
     65.60435890736765
     50.00000000000002
     36.35434252590510
     25.43836938223997
     17.24754001488870
     11.39123439793549
      7.35908990016154
      4.66571019408904
      2.91071923509985
      1.79062672270015
      1.08817566720664
      0.65421305372905
      0.38958290513063
      0.23003456412398
      0.13479829432610
      0.07845220251623
      0.04537765151140
      0.02610024722475
      0.01493590414491
      0.00850736567820
      0.00482509158211
      0.00272592641184
      0.00153446061384
      0.00086089720168
      0.00048151459497
      0.00026855191613
      0.00014938135887
      0.00008288852578
      0.00004588762209
      0.00002534934073
      0.00001397554994
      0.00000769056621
      0.00000422460772
      0.00000231686390
      0.00000126865763
      0.00000069367895
      0.00000037877399
      0.00000020655893
      0.00000011250768
      0.00000006121032
      0.00000003326590
      0.00000001806059
      0.00000000979596
      0.00000000530844
      0.00000000287417
      0.00000000155491
      0.00000000084055
      0.00000000045405
      0.00000000024510
      0.00000000013222
      0.00000000007128
      0.00000000003841
      0.00000000002068
      0.00000000001113
      0.00000000000599
      0.00000000000322
      0.00000000000173
      0.00000000000093
      0.00000000000050
      0.00000000000027
      0.00000000000014
      0.00000000000008
      0.00000000000004
      0.00000000000002
      0.00000000000001
      0.00000000000001
      0.00000000000000
      0.00000000000000
      0.00000000000000
      0.00000000000000
      0.00000000000000
      0.00000000000000
      0.00000000000000
      0.00000000000000
      0.00000000000000
      0.00000000000000
      0.00000000000000
      0.00000000000000
      0.00000000000000
      0.00000000000000
      0.00000000000000
      0.00000000000000
      0.00000000000000
      0.00000000000000
      0.00000000000000
      0.00000000000000
      0.00000000000000
      0.00000000000000
      0.00000000000000
      0.00000000000000
      0.00000000000000
      0.00000000000000
      0.00000000000000
      0.00000000000000
      0.00000000000000
      0.00000000000000
      0.00000000000000
      0.00000000000000
    100.00000000000000
     96.86738988387661
     89.03055023726976
     77.30437694929012
     63.64565747409495
     50.00000000000003
     37.72407834891278
     27.49350042317195
     19.45102475165400
     13.41340165670589
      9.04686656043277
      5.98478412822460
      3.89237455940366
      2.49377231659694
      1.57652872470702
      0.98484586096301
      0.60867503541767
      0.37257178721079
      0.22606712781510
      0.13608583417032
      0.08132779404484
      0.04828165777199
      0.02848907844897
      0.01671619558882
      0.00975767991252
      0.00566857100266
      0.00327845666000
      0.00188829715936
      0.00108342679463
      0.00061939700135
      0.00035292372599
      0.00020046008181
      0.00011352601901
      0.00006411527360
      0.00003611586369
      0.00002029416100
      0.00001137736993
      0.00000636453735
      0.00000355302558
      0.00000197963420
      0.00000110096079
      0.00000061122498
      0.00000033877542
      0.00000018747391
      0.00000010359104
      0.00000005715944
      0.00000003149693
      0.00000001733369
      0.00000000952759
      0.00000000523081
      0.00000000286862
      0.00000000157150
      0.00000000086004
      0.00000000047022
      0.00000000025685
      0.00000000014018
      0.00000000007644
      0.00000000004165
      0.00000000002267
      0.00000000001234
      0.00000000000671
      0.00000000000364
      0.00000000000198
      0.00000000000107
      0.00000000000058
      0.00000000000032
      0.00000000000017
      0.00000000000009
      0.00000000000005
      0.00000000000003
      0.00000000000001
      0.00000000000001
      0.00000000000000
      0.00000000000000
      0.00000000000000
      0.00000000000000
      0.00000000000000
      0.00000000000000
      0.00000000000000
      0.00000000000000
      0.00000000000000
      0.00000000000000
      0.00000000000000
      0.00000000000000
      0.00000000000000
      0.00000000000000
      0.00000000000000
      0.00000000000000
      0.00000000000000
      0.00000000000000
      0.00000000000000
      0.00000000000000
      0.00000000000000
      0.00000000000000
      0.00000000000000
      0.00000000000000
      0.00000000000000
      0.00000000000000
      0.00000000000000
      0.00000000000000
      0.00000000000000
    100.00000000000000
     98.42805391281358
     93.71618751793986
     85.49719845273640
     74.56163061776007
     62.27592165108728
     50.00000000000004
     38.75059238792690
     29.10705335173515
     21.26751707895046
     15.16448784127390
     10.58127676616508
      7.24247897379435
      4.87270021744770
      3.22816976048627
      2.10918086136068
      1.36088245856992
      0.86812256059608
      0.54807071385400
      0.34274843598134
      0.21249098431536
      0.13068798139898
      0.07978688591194
      0.04838045189396
      0.02915195838148
      0.01746305080531
      0.01040406983107
      0.00616703927600
      0.00363819017827
      0.00213678723989
      0.00124975497490
      0.00072809237390
      0.00042261734168
      0.00024445585086
      0.00014093913796
      0.00008100652955
      0.00004642361368
      0.00002653116126
      0.00001512289762
      0.00000859872033
      0.00000487761253
      0.00000276061833
      0.00000155911667
      0.00000087875649
      0.00000049433101
      0.00000027756561
      0.00000015557816
      0.00000008705653
      0.00000004863582
      0.00000002712963
      0.00000001511100
      0.00000000840488
      0.00000000466858
      0.00000000258986
      0.00000000143493
      0.00000000079409
      0.00000000043895
      0.00000000024237
      0.00000000013369
      0.00000000007366
      0.00000000004055
      0.00000000002230
      0.00000000001225
      0.00000000000673
      0.00000000000369
      0.00000000000202
      0.00000000000111
      0.00000000000061
      0.00000000000033
      0.00000000000018
      0.00000000000010
      0.00000000000005
      0.00000000000003
      0.00000000000002
      0.00000000000001
      0.00000000000000
      0.00000000000000
      0.00000000000000
      0.00000000000000
      0.00000000000000
      0.00000000000000
      0.00000000000000
      0.00000000000000
      0.00000000000000
      0.00000000000000
      0.00000000000000
      0.00000000000000
      0.00000000000000
      0.00000000000000
      0.00000000000000
      0.00000000000000
      0.00000000000000
      0.00000000000000
      0.00000000000000
      0.00000000000000
      0.00000000000000
      0.00000000000000
      0.00000000000000
      0.00000000000000
      0.00000000000000
      0.00000000000000
    100.00000000000000
     99.21026062194085
     96.45384171775011
     90.96429459291291
     82.75245998511134
     72.50649957682811
     61.24940761207317
     50.00000000000004
     39.55664658142205
     30.41728284085078
     22.79712995451610
     16.69564268679875
     11.97510464165826
      8.42921002565978
      5.83312052948788
      3.97470232662569
      2.67054564312357
      1.77140884594910
      1.16126557837809
      0.75310548526287
      0.48357436298265
      0.30767045425776
      0.19409780417192
      0.12148839710078
      0.07548644548694
      0.04658441334997
      0.02856583230021
      0.01741273008363
      0.01055513547080
      0.00636482999635
      0.00381919973981
      0.00228110766510
      0.00135650770604
      0.00080335593642
      0.00047391567410
      0.00027854296218
      0.00016314187674
      0.00009523551776
      0.00005541984267
      0.00003215378647
      0.00001860212507
      0.00001073286235
      0.00000617655460
      0.00000354573615
      0.00000203069372
      0.00000116039500
      0.00000066165788
      0.00000037650231
      0.00000021381901
      0.00000012120075
      0.00000006857699
      0.00000003873448
      0.00000002184205
      0.00000001229686
      0.00000000691237
      0.00000000387988
      0.00000000217466
      0.00000000121722
      0.00000000068042
      0.00000000037987
      0.00000000021182
      0.00000000011797
      0.00000000006563
      0.00000000003647
      0.00000000002024
      0.00000000001123
      0.00000000000622
      0.00000000000344
      0.00000000000190
      0.00000000000105
      0.00000000000058
      0.00000000000032
      0.00000000000018
      0.00000000000010
      0.00000000000005
      0.00000000000003
      0.00000000000002
      0.00000000000001
      0.00000000000000
      0.00000000000000
      0.00000000000000
      0.00000000000000
      0.00000000000000
      0.00000000000000
      0.00000000000000
      0.00000000000000
      0.00000000000000
      0.00000000000000
      0.00000000000000
      0.00000000000000
      0.00000000000000
      0.00000000000000
      0.00000000000000
      0.00000000000000
      0.00000000000000
      0.00000000000000
      0.00000000000000
      0.00000000000000
      0.00000000000000
      0.00000000000000
      0.00000000000000
    100.00000000000000
     99.60277029523562
     98.02195910762259
     94.48434418549792
     88.60876560206457
     80.54897524834607
     70.89294664826492
     60.44335341857803
     50.00000000000004
     40.21124006304203
     31.50860375698919
     24.10754913658809
     18.04705893924843
     13.24365210253744
      9.54335894008412
      6.76329190269255
      4.72042569322642
      3.24870813144832
      2.20714544518337
      1.48175437792115
      0.98386730705350
      0.64664039171615
      0.42098977875635
      0.27167436513251
      0.17388142237269
      0.11043845042863
      0.06964084877041
      0.04361939871633
      0.02714848846926
      0.01679676087425
      0.01033402469090
      0.00632434694245
      0.00385115937175
      0.00233407369426
      0.00140829545992
      0.00084611630576
      0.00050631073982
      0.00030181594023
      0.00017926122786
      0.00010610246635
      0.00006259365209
      0.00003681010258
      0.00002158230023
      0.00001261771159
      0.00000735648392
      0.00000427777769
      0.00000248126271
      0.00000143575226
      0.00000082886063
      0.00000047744066
      0.00000027443000
      0.00000015741801
      0.00000009012023
      0.00000005149534
      0.00000002937123
      0.00000001672301
      0.00000000950545
      0.00000000539416
      0.00000000305628
      0.00000000172903
      0.00000000097674
      0.00000000055099
      0.00000000031039
      0.00000000017463
      0.00000000009812
      0.00000000005506
      0.00000000003086
      0.00000000001728
      0.00000000000966
      0.00000000000540
      0.00000000000301
      0.00000000000168
      0.00000000000094
      0.00000000000052
      0.00000000000029
      0.00000000000016
      0.00000000000009
      0.00000000000005
      0.00000000000003
      0.00000000000002
      0.00000000000001
      0.00000000000000
      0.00000000000000
      0.00000000000000
      0.00000000000000
      0.00000000000000
      0.00000000000000
      0.00000000000000
      0.00000000000000
      0.00000000000000
      0.00000000000000
      0.00000000000000
      0.00000000000000
      0.00000000000000
      0.00000000000000
      0.00000000000000
      0.00000000000000
      0.00000000000000
      0.00000000000000
      0.00000000000000
      0.00000000000000
    100.00000000000000
     99.79996417613782
     98.90683648057478
     96.68913722579467
     92.64091009983851
     86.58659834329418
     78.73248292104962
     69.58271715914931
     59.78875993695807
     50.00000000000006
     40.75650981411911
     32.43584412204649
     25.24622233546844
     19.25007905982573
     14.40177429559345
     10.58718998460076
      7.65788887355117
      5.45673403122648
      3.83473671761550
      2.66045864262126
      1.82387127265547
      1.23654607821667
      0.82972374158754
      0.55139492432555
      0.36313690246946
      0.23714004551693
      0.15363617736399
      0.09879710801454
      0.06308818357728
      0.04002030138564
      0.02522916263908
      0.01581119029522
      0.00985379082233
      0.00610867086439
      0.00376801850555
      0.00231319434937
      0.00141366411409
      0.00086022210384
      0.00052130762619
      0.00031468765510
      0.00018925404480
      0.00011341310865
      0.00006773330026
      0.00004032053113
      0.00002392740375
      0.00001415686222
      0.00000835206810
      0.00000491390907
      0.00000288346007
      0.00000168771678
      0.00000098543194
      0.00000057403124
      0.00000033362957
      0.00000019348619
      0.00000011197636
      0.00000006467351
      0.00000003728047
      0.00000002144969
      0.00000001231894
      0.00000000706262
      0.00000000404225
      0.00000000230978
      0.00000000131775
      0.00000000075064
      0.00000000042696
      0.00000000024250
      0.00000000013754
      0.00000000007791
      0.00000000004407
      0.00000000002490
      0.00000000001405
      0.00000000000792
      0.00000000000446
      0.00000000000251
      0.00000000000141
      0.00000000000079
      0.00000000000044
      0.00000000000025
      0.00000000000014
      0.00000000000008
      0.00000000000004
      0.00000000000002
      0.00000000000001
      0.00000000000001
      0.00000000000000
      0.00000000000000
      0.00000000000000
      0.00000000000000
      0.00000000000000
      0.00000000000000
      0.00000000000000
      0.00000000000000
      0.00000000000000
      0.00000000000000
      0.00000000000000
      0.00000000000000
      0.00000000000000
      0.00000000000000
      0.00000000000000
      0.00000000000000
      0.00000000000000
    100.00000000000000
     99.89914956243076
     99.40039131222970
     98.04023615753221
     95.33428980591101
     90.95313343956728
     84.83551215872617
     77.20287004548398
     68.49139624301091
     59.24349018588101
     50.00000000000006
     41.21982824618221
     33.23636194649680
     26.24745764755802
     20.32926017262189
     15.46287391480244
     11.56474504244106
      8.51463827213326
      6.17803488546918
      4.42202684752047
      3.12519331182900
      2.18263714493014
      1.50754234983498
      1.03049782607516
      0.69758161583861
      0.46791940626004
      0.31118017328076
      0.20527468073857
      0.13438229688380
      0.08734076493097
      0.05638078734290
      0.03616118646148
      0.02305144563989
      0.01460944245953
      0.00920821630254
      0.00577353010537
      0.00360197812991
      0.00223654053921
      0.00138243334391
      0.00085081054848
      0.00052146678129
      0.00031834954773
      0.00019361524272
      0.00011732811007
      0.00007085283950
      0.00004264486706
      0.00002558519716
      0.00001530305755
      0.00000912613805
      0.00000542705696
      0.00000321852432
      0.00000190374336
      0.00000112321027
      0.00000066108078
      0.00000038817412
      0.00000022741187
      0.00000013293777
      0.00000007754699
      0.00000004514335
      0.00000002622797
      0.00000001520918
      0.00000000880327
      0.00000000508634
      0.00000000293369
      0.00000000168925
      0.00000000097111
      0.00000000055739
      0.00000000031944
      0.00000000018280
      0.00000000010445
      0.00000000005960
      0.00000000003397
      0.00000000001933
      0.00000000001099
      0.00000000000624
      0.00000000000354
      0.00000000000200
      0.00000000000113
      0.00000000000064
      0.00000000000036