# vtk DataFile Version 3.0
Uniform Rectilinear - Rectilinear Grid
ASCII
DATASET RECTILINEAR_GRID
DIMENSIONS   5   5   1
X_COORDINATES   5 float
      0.00000000000000
      0.16666666666667
      0.50000000000000
      0.83333333333333
      1.00000000000000
Y_COORDINATES   5 float
      0.00000000000000
      0.16666666666667
      0.50000000000000
      0.83333333333333
      1.00000000000000
Z_COORDINATES   1 float
      1.00000000000000
POINT_DATA               25
SCALARS T float
LOOKUP_TABLE default
      0.00000000000000
      0.00000000000000
      0.00000000000000
      0.00000000000000
      0.00000000000000
      0.00000000000000
      3.57142857145808
      6.42857142862454
      3.57142857145808
      0.00000000000000
      0.00000000000000
     15.00000000005311
     25.00000000008852
     15.00000000005311
      0.00000000000000
      0.00000000000000
     46.42857142860093
     63.57142857148168
     46.42857142860093
      0.00000000000000
      0.00000000000000
    100.00000000000000
    100.00000000000000
    100.00000000000000
      0.00000000000000
