# vtk DataFile Version 3.0
Non-uniform Rectilinear - Rectilinear Grid
ASCII
DATASET RECTILINEAR_GRID
DIMENSIONS   7   1   1
X_COORDINATES   7 float
      0.00000000000000
      0.10000000000000
      0.30000000000000
      0.50000000000000
      0.70000000000000
      0.90000000000000
      1.00000000000000
Y_COORDINATES   1 float
      1.00000000000000
Z_COORDINATES   1 float
      1.00000000000000
POINT_DATA                7
SCALARS T float
LOOKUP_TABLE default
      0.00000000000000
     10.00000000001418
     30.00000000000709
     49.99999999999999
     69.99999999999291
     89.99999999998583
    100.00000000000000
